s 20.000000000 _0_ AGT  --- 0 cbr 1000 [0 0 0 0] ------- [1:0 -1:-1 32 0] [0] 0 0
s 20.005000000 _0_ AGT  --- 1 cbr 1000 [0 0 0 0] ------- [1:0 -1:-1 32 0] [1] 0 0
