V -t * -v 1.0a5 -a 0
A -t * -n 1 -p 0 -o 0x7fffffff -c 30 -a 1
A -t * -h 1 -m 1073741823 -s 0
n -t * -a 0 -s 0 -S UP -v circle -c black -i black
n -t * -a 1 -s 1 -S UP -v circle -c black -i black
n -t * -a 2 -s 2 -S UP -v circle -c black -i black
n -t * -a 3 -s 3 -S UP -v circle -c black -i black
n -t * -a 4 -s 4 -S UP -v circle -c black -i black
n -t * -a 5 -s 5 -S UP -v circle -c black -i black
n -t * -a 6 -s 6 -S UP -v circle -c black -i black
n -t * -a 7 -s 7 -S UP -v circle -c black -i black
n -t * -a 8 -s 8 -S UP -v circle -c black -i black
n -t * -a 9 -s 9 -S UP -v circle -c black -i black
n -t * -a 10 -s 10 -S UP -v circle -c black -i black
n -t * -a 11 -s 11 -S UP -v circle -c black -i black
n -t * -a 12 -s 12 -S UP -v circle -c black -i black
n -t * -a 13 -s 13 -S UP -v circle -c black -i black
n -t * -a 14 -s 14 -S UP -v circle -c black -i black
n -t * -a 15 -s 15 -S UP -v circle -c black -i black
l -t * -s 0 -d 5 -S UP -r 5000000 -D 0.02 -c black -o up
l -t * -s 1 -d 6 -S UP -r 5000000 -D 0.02 -c black -o up
l -t * -s 2 -d 7 -S UP -r 5000000 -D 0.02 -c black -o up
l -t * -s 3 -d 8 -S UP -r 5000000 -D 0.02 -c black -o up
l -t * -s 4 -d 9 -S UP -r 5000000 -D 0.02 -c black -o up
l -t * -s 5 -d 6 -S UP -r 500000 -D 0.10000000000000001 -c black -o right
l -t * -s 6 -d 7 -S UP -r 500000 -D 0.10000000000000001 -c black -o right
l -t * -s 7 -d 8 -S UP -r 500000 -D 0.10000000000000001 -c black -o right
l -t * -s 8 -d 9 -S UP -r 500000 -D 0.10000000000000001 -c black -o right
l -t * -s 9 -d 15 -S UP -r 500000 -D 0.10000000000000001 -c black -o right
l -t * -s 15 -d 10 -S UP -r 500000 -D 0.10000000000000001 -c black -o up
l -t * -s 15 -d 11 -S UP -r 500000 -D 0.10000000000000001 -c black -o right-up
l -t * -s 15 -d 12 -S UP -r 500000 -D 0.10000000000000001 -c black -o right
l -t * -s 15 -d 13 -S UP -r 500000 -D 0.10000000000000001 -c black -o right-down
l -t * -s 15 -d 14 -S UP -r 500000 -D 0.10000000000000001 -c black -o down
+ -t 0.1 -s 0 -d 5 -p tcp -e 40 -c 0 -i 0 -a 0 -x {0.0 10.0 0 ------- null}
- -t 0.1 -s 0 -d 5 -p tcp -e 40 -c 0 -i 0 -a 0 -x {0.0 10.0 0 ------- null}
h -t 0.1 -s 0 -d 5 -p tcp -e 40 -c 0 -i 0 -a 0 -x {0.0 10.0 -1 ------- null}
+ -t 0.1 -s 1 -d 6 -p tcp -e 40 -c 0 -i 1 -a 0 -x {1.0 11.0 0 ------- null}
- -t 0.1 -s 1 -d 6 -p tcp -e 40 -c 0 -i 1 -a 0 -x {1.0 11.0 0 ------- null}
h -t 0.1 -s 1 -d 6 -p tcp -e 40 -c 0 -i 1 -a 0 -x {1.0 11.0 -1 ------- null}
+ -t 0.1 -s 2 -d 7 -p tcp -e 40 -c 0 -i 2 -a 0 -x {2.0 12.0 0 ------- null}
- -t 0.1 -s 2 -d 7 -p tcp -e 40 -c 0 -i 2 -a 0 -x {2.0 12.0 0 ------- null}
h -t 0.1 -s 2 -d 7 -p tcp -e 40 -c 0 -i 2 -a 0 -x {2.0 12.0 -1 ------- null}
+ -t 0.1 -s 3 -d 8 -p tcp -e 40 -c 0 -i 3 -a 0 -x {3.0 13.0 0 ------- null}
- -t 0.1 -s 3 -d 8 -p tcp -e 40 -c 0 -i 3 -a 0 -x {3.0 13.0 0 ------- null}
h -t 0.1 -s 3 -d 8 -p tcp -e 40 -c 0 -i 3 -a 0 -x {3.0 13.0 -1 ------- null}
+ -t 0.1 -s 4 -d 9 -p tcp -e 40 -c 0 -i 4 -a 0 -x {4.0 14.0 0 ------- null}
- -t 0.1 -s 4 -d 9 -p tcp -e 40 -c 0 -i 4 -a 0 -x {4.0 14.0 0 ------- null}
h -t 0.1 -s 4 -d 9 -p tcp -e 40 -c 0 -i 4 -a 0 -x {4.0 14.0 -1 ------- null}
r -t 0.120064 -s 0 -d 5 -p tcp -e 40 -c 0 -i 0 -a 0 -x {0.0 10.0 0 ------- null}
+ -t 0.120064 -s 5 -d 6 -p tcp -e 40 -c 0 -i 0 -a 0 -x {0.0 10.0 0 ------- null}
- -t 0.120064 -s 5 -d 6 -p tcp -e 40 -c 0 -i 0 -a 0 -x {0.0 10.0 0 ------- null}
h -t 0.120064 -s 5 -d 6 -p tcp -e 40 -c 0 -i 0 -a 0 -x {0.0 10.0 -1 ------- null}
r -t 0.120064 -s 1 -d 6 -p tcp -e 40 -c 0 -i 1 -a 0 -x {1.0 11.0 0 ------- null}
+ -t 0.120064 -s 6 -d 7 -p tcp -e 40 -c 0 -i 1 -a 0 -x {1.0 11.0 0 ------- null}
- -t 0.120064 -s 6 -d 7 -p tcp -e 40 -c 0 -i 1 -a 0 -x {1.0 11.0 0 ------- null}
h -t 0.120064 -s 6 -d 7 -p tcp -e 40 -c 0 -i 1 -a 0 -x {1.0 11.0 -1 ------- null}
r -t 0.120064 -s 2 -d 7 -p tcp -e 40 -c 0 -i 2 -a 0 -x {2.0 12.0 0 ------- null}
+ -t 0.120064 -s 7 -d 8 -p tcp -e 40 -c 0 -i 2 -a 0 -x {2.0 12.0 0 ------- null}
- -t 0.120064 -s 7 -d 8 -p tcp -e 40 -c 0 -i 2 -a 0 -x {2.0 12.0 0 ------- null}
h -t 0.120064 -s 7 -d 8 -p tcp -e 40 -c 0 -i 2 -a 0 -x {2.0 12.0 -1 ------- null}
r -t 0.120064 -s 3 -d 8 -p tcp -e 40 -c 0 -i 3 -a 0 -x {3.0 13.0 0 ------- null}
+ -t 0.120064 -s 8 -d 9 -p tcp -e 40 -c 0 -i 3 -a 0 -x {3.0 13.0 0 ------- null}
- -t 0.120064 -s 8 -d 9 -p tcp -e 40 -c 0 -i 3 -a 0 -x {3.0 13.0 0 ------- null}
h -t 0.120064 -s 8 -d 9 -p tcp -e 40 -c 0 -i 3 -a 0 -x {3.0 13.0 -1 ------- null}
r -t 0.120064 -s 4 -d 9 -p tcp -e 40 -c 0 -i 4 -a 0 -x {4.0 14.0 0 ------- null}
+ -t 0.120064 -s 9 -d 15 -p tcp -e 40 -c 0 -i 4 -a 0 -x {4.0 14.0 0 ------- null}
- -t 0.120064 -s 9 -d 15 -p tcp -e 40 -c 0 -i 4 -a 0 -x {4.0 14.0 0 ------- null}
h -t 0.120064 -s 9 -d 15 -p tcp -e 40 -c 0 -i 4 -a 0 -x {4.0 14.0 -1 ------- null}
r -t 0.220704 -s 5 -d 6 -p tcp -e 40 -c 0 -i 0 -a 0 -x {0.0 10.0 0 ------- null}
+ -t 0.220704 -s 6 -d 7 -p tcp -e 40 -c 0 -i 0 -a 0 -x {0.0 10.0 0 ------- null}
- -t 0.220704 -s 6 -d 7 -p tcp -e 40 -c 0 -i 0 -a 0 -x {0.0 10.0 0 ------- null}
h -t 0.220704 -s 6 -d 7 -p tcp -e 40 -c 0 -i 0 -a 0 -x {0.0 10.0 -1 ------- null}
r -t 0.220704 -s 6 -d 7 -p tcp -e 40 -c 0 -i 1 -a 0 -x {1.0 11.0 0 ------- null}
+ -t 0.220704 -s 7 -d 8 -p tcp -e 40 -c 0 -i 1 -a 0 -x {1.0 11.0 0 ------- null}
- -t 0.220704 -s 7 -d 8 -p tcp -e 40 -c 0 -i 1 -a 0 -x {1.0 11.0 0 ------- null}
h -t 0.220704 -s 7 -d 8 -p tcp -e 40 -c 0 -i 1 -a 0 -x {1.0 11.0 -1 ------- null}
r -t 0.220704 -s 7 -d 8 -p tcp -e 40 -c 0 -i 2 -a 0 -x {2.0 12.0 0 ------- null}
+ -t 0.220704 -s 8 -d 9 -p tcp -e 40 -c 0 -i 2 -a 0 -x {2.0 12.0 0 ------- null}
- -t 0.220704 -s 8 -d 9 -p tcp -e 40 -c 0 -i 2 -a 0 -x {2.0 12.0 0 ------- null}
h -t 0.220704 -s 8 -d 9 -p tcp -e 40 -c 0 -i 2 -a 0 -x {2.0 12.0 -1 ------- null}
r -t 0.220704 -s 8 -d 9 -p tcp -e 40 -c 0 -i 3 -a 0 -x {3.0 13.0 0 ------- null}
+ -t 0.220704 -s 9 -d 15 -p tcp -e 40 -c 0 -i 3 -a 0 -x {3.0 13.0 0 ------- null}
- -t 0.220704 -s 9 -d 15 -p tcp -e 40 -c 0 -i 3 -a 0 -x {3.0 13.0 0 ------- null}
h -t 0.220704 -s 9 -d 15 -p tcp -e 40 -c 0 -i 3 -a 0 -x {3.0 13.0 -1 ------- null}
r -t 0.220704 -s 9 -d 15 -p tcp -e 40 -c 0 -i 4 -a 0 -x {4.0 14.0 0 ------- null}
+ -t 0.220704 -s 15 -d 14 -p tcp -e 40 -c 0 -i 4 -a 0 -x {4.0 14.0 0 ------- null}
- -t 0.220704 -s 15 -d 14 -p tcp -e 40 -c 0 -i 4 -a 0 -x {4.0 14.0 0 ------- null}
h -t 0.220704 -s 15 -d 14 -p tcp -e 40 -c 0 -i 4 -a 0 -x {4.0 14.0 -1 ------- null}
r -t 0.321344 -s 6 -d 7 -p tcp -e 40 -c 0 -i 0 -a 0 -x {0.0 10.0 0 ------- null}
+ -t 0.321344 -s 7 -d 8 -p tcp -e 40 -c 0 -i 0 -a 0 -x {0.0 10.0 0 ------- null}
- -t 0.321344 -s 7 -d 8 -p tcp -e 40 -c 0 -i 0 -a 0 -x {0.0 10.0 0 ------- null}
h -t 0.321344 -s 7 -d 8 -p tcp -e 40 -c 0 -i 0 -a 0 -x {0.0 10.0 -1 ------- null}
r -t 0.321344 -s 7 -d 8 -p tcp -e 40 -c 0 -i 1 -a 0 -x {1.0 11.0 0 ------- null}
+ -t 0.321344 -s 8 -d 9 -p tcp -e 40 -c 0 -i 1 -a 0 -x {1.0 11.0 0 ------- null}
- -t 0.321344 -s 8 -d 9 -p tcp -e 40 -c 0 -i 1 -a 0 -x {1.0 11.0 0 ------- null}
h -t 0.321344 -s 8 -d 9 -p tcp -e 40 -c 0 -i 1 -a 0 -x {1.0 11.0 -1 ------- null}
r -t 0.321344 -s 8 -d 9 -p tcp -e 40 -c 0 -i 2 -a 0 -x {2.0 12.0 0 ------- null}
+ -t 0.321344 -s 9 -d 15 -p tcp -e 40 -c 0 -i 2 -a 0 -x {2.0 12.0 0 ------- null}
- -t 0.321344 -s 9 -d 15 -p tcp -e 40 -c 0 -i 2 -a 0 -x {2.0 12.0 0 ------- null}
h -t 0.321344 -s 9 -d 15 -p tcp -e 40 -c 0 -i 2 -a 0 -x {2.0 12.0 -1 ------- null}
r -t 0.321344 -s 9 -d 15 -p tcp -e 40 -c 0 -i 3 -a 0 -x {3.0 13.0 0 ------- null}
+ -t 0.321344 -s 15 -d 13 -p tcp -e 40 -c 0 -i 3 -a 0 -x {3.0 13.0 0 ------- null}
- -t 0.321344 -s 15 -d 13 -p tcp -e 40 -c 0 -i 3 -a 0 -x {3.0 13.0 0 ------- null}
h -t 0.321344 -s 15 -d 13 -p tcp -e 40 -c 0 -i 3 -a 0 -x {3.0 13.0 -1 ------- null}
r -t 0.321344 -s 15 -d 14 -p tcp -e 40 -c 0 -i 4 -a 0 -x {4.0 14.0 0 ------- null}
+ -t 0.321344 -s 14 -d 15 -p ack -e 40 -c 0 -i 5 -a 0 -x {14.0 4.0 0 ------- null}
- -t 0.321344 -s 14 -d 15 -p ack -e 40 -c 0 -i 5 -a 0 -x {14.0 4.0 0 ------- null}
h -t 0.321344 -s 14 -d 15 -p ack -e 40 -c 0 -i 5 -a 0 -x {14.0 4.0 -1 ------- null}
r -t 0.421984 -s 7 -d 8 -p tcp -e 40 -c 0 -i 0 -a 0 -x {0.0 10.0 0 ------- null}
+ -t 0.421984 -s 8 -d 9 -p tcp -e 40 -c 0 -i 0 -a 0 -x {0.0 10.0 0 ------- null}
- -t 0.421984 -s 8 -d 9 -p tcp -e 40 -c 0 -i 0 -a 0 -x {0.0 10.0 0 ------- null}
h -t 0.421984 -s 8 -d 9 -p tcp -e 40 -c 0 -i 0 -a 0 -x {0.0 10.0 -1 ------- null}
r -t 0.421984 -s 8 -d 9 -p tcp -e 40 -c 0 -i 1 -a 0 -x {1.0 11.0 0 ------- null}
+ -t 0.421984 -s 9 -d 15 -p tcp -e 40 -c 0 -i 1 -a 0 -x {1.0 11.0 0 ------- null}
- -t 0.421984 -s 9 -d 15 -p tcp -e 40 -c 0 -i 1 -a 0 -x {1.0 11.0 0 ------- null}
h -t 0.421984 -s 9 -d 15 -p tcp -e 40 -c 0 -i 1 -a 0 -x {1.0 11.0 -1 ------- null}
r -t 0.421984 -s 9 -d 15 -p tcp -e 40 -c 0 -i 2 -a 0 -x {2.0 12.0 0 ------- null}
+ -t 0.421984 -s 15 -d 12 -p tcp -e 40 -c 0 -i 2 -a 0 -x {2.0 12.0 0 ------- null}
- -t 0.421984 -s 15 -d 12 -p tcp -e 40 -c 0 -i 2 -a 0 -x {2.0 12.0 0 ------- null}
h -t 0.421984 -s 15 -d 12 -p tcp -e 40 -c 0 -i 2 -a 0 -x {2.0 12.0 -1 ------- null}
r -t 0.421984 -s 15 -d 13 -p tcp -e 40 -c 0 -i 3 -a 0 -x {3.0 13.0 0 ------- null}
+ -t 0.421984 -s 13 -d 15 -p ack -e 40 -c 0 -i 6 -a 0 -x {13.0 3.0 0 ------- null}
- -t 0.421984 -s 13 -d 15 -p ack -e 40 -c 0 -i 6 -a 0 -x {13.0 3.0 0 ------- null}
h -t 0.421984 -s 13 -d 15 -p ack -e 40 -c 0 -i 6 -a 0 -x {13.0 3.0 -1 ------- null}
r -t 0.421984 -s 14 -d 15 -p ack -e 40 -c 0 -i 5 -a 0 -x {14.0 4.0 0 ------- null}
+ -t 0.421984 -s 15 -d 9 -p ack -e 40 -c 0 -i 5 -a 0 -x {14.0 4.0 0 ------- null}
- -t 0.421984 -s 15 -d 9 -p ack -e 40 -c 0 -i 5 -a 0 -x {14.0 4.0 0 ------- null}
h -t 0.421984 -s 15 -d 9 -p ack -e 40 -c 0 -i 5 -a 0 -x {14.0 4.0 -1 ------- null}
r -t 0.522624 -s 8 -d 9 -p tcp -e 40 -c 0 -i 0 -a 0 -x {0.0 10.0 0 ------- null}
+ -t 0.522624 -s 9 -d 15 -p tcp -e 40 -c 0 -i 0 -a 0 -x {0.0 10.0 0 ------- null}
- -t 0.522624 -s 9 -d 15 -p tcp -e 40 -c 0 -i 0 -a 0 -x {0.0 10.0 0 ------- null}
h -t 0.522624 -s 9 -d 15 -p tcp -e 40 -c 0 -i 0 -a 0 -x {0.0 10.0 -1 ------- null}
r -t 0.522624 -s 9 -d 15 -p tcp -e 40 -c 0 -i 1 -a 0 -x {1.0 11.0 0 ------- null}
+ -t 0.522624 -s 15 -d 11 -p tcp -e 40 -c 0 -i 1 -a 0 -x {1.0 11.0 0 ------- null}
- -t 0.522624 -s 15 -d 11 -p tcp -e 40 -c 0 -i 1 -a 0 -x {1.0 11.0 0 ------- null}
h -t 0.522624 -s 15 -d 11 -p tcp -e 40 -c 0 -i 1 -a 0 -x {1.0 11.0 -1 ------- null}
r -t 0.522624 -s 15 -d 12 -p tcp -e 40 -c 0 -i 2 -a 0 -x {2.0 12.0 0 ------- null}
+ -t 0.522624 -s 12 -d 15 -p ack -e 40 -c 0 -i 7 -a 0 -x {12.0 2.0 0 ------- null}
- -t 0.522624 -s 12 -d 15 -p ack -e 40 -c 0 -i 7 -a 0 -x {12.0 2.0 0 ------- null}
h -t 0.522624 -s 12 -d 15 -p ack -e 40 -c 0 -i 7 -a 0 -x {12.0 2.0 -1 ------- null}
r -t 0.522624 -s 13 -d 15 -p ack -e 40 -c 0 -i 6 -a 0 -x {13.0 3.0 0 ------- null}
+ -t 0.522624 -s 15 -d 9 -p ack -e 40 -c 0 -i 6 -a 0 -x {13.0 3.0 0 ------- null}
- -t 0.522624 -s 15 -d 9 -p ack -e 40 -c 0 -i 6 -a 0 -x {13.0 3.0 0 ------- null}
h -t 0.522624 -s 15 -d 9 -p ack -e 40 -c 0 -i 6 -a 0 -x {13.0 3.0 -1 ------- null}
r -t 0.522624 -s 15 -d 9 -p ack -e 40 -c 0 -i 5 -a 0 -x {14.0 4.0 0 ------- null}
+ -t 0.522624 -s 9 -d 4 -p ack -e 40 -c 0 -i 5 -a 0 -x {14.0 4.0 0 ------- null}
- -t 0.522624 -s 9 -d 4 -p ack -e 40 -c 0 -i 5 -a 0 -x {14.0 4.0 0 ------- null}
h -t 0.522624 -s 9 -d 4 -p ack -e 40 -c 0 -i 5 -a 0 -x {14.0 4.0 -1 ------- null}
r -t 0.542688 -s 9 -d 4 -p ack -e 40 -c 0 -i 5 -a 0 -x {14.0 4.0 0 ------- null}
+ -t 0.542688 -s 4 -d 9 -p tcp -e 1040 -c 0 -i 8 -a 0 -x {4.0 14.0 1 ------- null}
- -t 0.542688 -s 4 -d 9 -p tcp -e 1040 -c 0 -i 8 -a 0 -x {4.0 14.0 1 ------- null}
h -t 0.542688 -s 4 -d 9 -p tcp -e 1040 -c 0 -i 8 -a 0 -x {4.0 14.0 -1 ------- null}
+ -t 0.542688 -s 4 -d 9 -p tcp -e 1040 -c 0 -i 9 -a 0 -x {4.0 14.0 2 ------- null}
- -t 0.544352 -s 4 -d 9 -p tcp -e 1040 -c 0 -i 9 -a 0 -x {4.0 14.0 2 ------- null}
h -t 0.544352 -s 4 -d 9 -p tcp -e 1040 -c 0 -i 9 -a 0 -x {4.0 14.0 -1 ------- null}
r -t 0.564352 -s 4 -d 9 -p tcp -e 1040 -c 0 -i 8 -a 0 -x {4.0 14.0 1 ------- null}
+ -t 0.564352 -s 9 -d 15 -p tcp -e 1040 -c 0 -i 8 -a 0 -x {4.0 14.0 1 ------- null}
- -t 0.564352 -s 9 -d 15 -p tcp -e 1040 -c 0 -i 8 -a 0 -x {4.0 14.0 1 ------- null}
h -t 0.564352 -s 9 -d 15 -p tcp -e 1040 -c 0 -i 8 -a 0 -x {4.0 14.0 -1 ------- null}
r -t 0.566016 -s 4 -d 9 -p tcp -e 1040 -c 0 -i 9 -a 0 -x {4.0 14.0 2 ------- null}
+ -t 0.566016 -s 9 -d 15 -p tcp -e 1040 -c 0 -i 9 -a 0 -x {4.0 14.0 2 ------- null}
- -t 0.580992 -s 9 -d 15 -p tcp -e 1040 -c 0 -i 9 -a 0 -x {4.0 14.0 2 ------- null}
h -t 0.580992 -s 9 -d 15 -p tcp -e 1040 -c 0 -i 9 -a 0 -x {4.0 14.0 -1 ------- null}
r -t 0.623264 -s 9 -d 15 -p tcp -e 40 -c 0 -i 0 -a 0 -x {0.0 10.0 0 ------- null}
+ -t 0.623264 -s 15 -d 10 -p tcp -e 40 -c 0 -i 0 -a 0 -x {0.0 10.0 0 ------- null}
- -t 0.623264 -s 15 -d 10 -p tcp -e 40 -c 0 -i 0 -a 0 -x {0.0 10.0 0 ------- null}
h -t 0.623264 -s 15 -d 10 -p tcp -e 40 -c 0 -i 0 -a 0 -x {0.0 10.0 -1 ------- null}
r -t 0.623264 -s 15 -d 11 -p tcp -e 40 -c 0 -i 1 -a 0 -x {1.0 11.0 0 ------- null}
+ -t 0.623264 -s 11 -d 15 -p ack -e 40 -c 0 -i 10 -a 0 -x {11.0 1.0 0 ------- null}
- -t 0.623264 -s 11 -d 15 -p ack -e 40 -c 0 -i 10 -a 0 -x {11.0 1.0 0 ------- null}
h -t 0.623264 -s 11 -d 15 -p ack -e 40 -c 0 -i 10 -a 0 -x {11.0 1.0 -1 ------- null}
r -t 0.623264 -s 12 -d 15 -p ack -e 40 -c 0 -i 7 -a 0 -x {12.0 2.0 0 ------- null}
+ -t 0.623264 -s 15 -d 9 -p ack -e 40 -c 0 -i 7 -a 0 -x {12.0 2.0 0 ------- null}
- -t 0.623264 -s 15 -d 9 -p ack -e 40 -c 0 -i 7 -a 0 -x {12.0 2.0 0 ------- null}
h -t 0.623264 -s 15 -d 9 -p ack -e 40 -c 0 -i 7 -a 0 -x {12.0 2.0 -1 ------- null}
r -t 0.623264 -s 15 -d 9 -p ack -e 40 -c 0 -i 6 -a 0 -x {13.0 3.0 0 ------- null}
+ -t 0.623264 -s 9 -d 8 -p ack -e 40 -c 0 -i 6 -a 0 -x {13.0 3.0 0 ------- null}
- -t 0.623264 -s 9 -d 8 -p ack -e 40 -c 0 -i 6 -a 0 -x {13.0 3.0 0 ------- null}
h -t 0.623264 -s 9 -d 8 -p ack -e 40 -c 0 -i 6 -a 0 -x {13.0 3.0 -1 ------- null}
r -t 0.680992 -s 9 -d 15 -p tcp -e 1040 -c 0 -i 8 -a 0 -x {4.0 14.0 1 ------- null}
+ -t 0.680992 -s 15 -d 14 -p tcp -e 1040 -c 0 -i 8 -a 0 -x {4.0 14.0 1 ------- null}
- -t 0.680992 -s 15 -d 14 -p tcp -e 1040 -c 0 -i 8 -a 0 -x {4.0 14.0 1 ------- null}
h -t 0.680992 -s 15 -d 14 -p tcp -e 1040 -c 0 -i 8 -a 0 -x {4.0 14.0 -1 ------- null}
r -t 0.697632 -s 9 -d 15 -p tcp -e 1040 -c 0 -i 9 -a 0 -x {4.0 14.0 2 ------- null}
+ -t 0.697632 -s 15 -d 14 -p tcp -e 1040 -c 0 -i 9 -a 0 -x {4.0 14.0 2 ------- null}
- -t 0.697632 -s 15 -d 14 -p tcp -e 1040 -c 0 -i 9 -a 0 -x {4.0 14.0 2 ------- null}
h -t 0.697632 -s 15 -d 14 -p tcp -e 1040 -c 0 -i 9 -a 0 -x {4.0 14.0 -1 ------- null}
r -t 0.723904 -s 15 -d 10 -p tcp -e 40 -c 0 -i 0 -a 0 -x {0.0 10.0 0 ------- null}
+ -t 0.723904 -s 10 -d 15 -p ack -e 40 -c 0 -i 11 -a 0 -x {10.0 0.0 0 ------- null}
- -t 0.723904 -s 10 -d 15 -p ack -e 40 -c 0 -i 11 -a 0 -x {10.0 0.0 0 ------- null}
h -t 0.723904 -s 10 -d 15 -p ack -e 40 -c 0 -i 11 -a 0 -x {10.0 0.0 -1 ------- null}
r -t 0.723904 -s 11 -d 15 -p ack -e 40 -c 0 -i 10 -a 0 -x {11.0 1.0 0 ------- null}
+ -t 0.723904 -s 15 -d 9 -p ack -e 40 -c 0 -i 10 -a 0 -x {11.0 1.0 0 ------- null}
- -t 0.723904 -s 15 -d 9 -p ack -e 40 -c 0 -i 10 -a 0 -x {11.0 1.0 0 ------- null}
h -t 0.723904 -s 15 -d 9 -p ack -e 40 -c 0 -i 10 -a 0 -x {11.0 1.0 -1 ------- null}
r -t 0.723904 -s 15 -d 9 -p ack -e 40 -c 0 -i 7 -a 0 -x {12.0 2.0 0 ------- null}
+ -t 0.723904 -s 9 -d 8 -p ack -e 40 -c 0 -i 7 -a 0 -x {12.0 2.0 0 ------- null}
- -t 0.723904 -s 9 -d 8 -p ack -e 40 -c 0 -i 7 -a 0 -x {12.0 2.0 0 ------- null}
h -t 0.723904 -s 9 -d 8 -p ack -e 40 -c 0 -i 7 -a 0 -x {12.0 2.0 -1 ------- null}
r -t 0.723904 -s 9 -d 8 -p ack -e 40 -c 0 -i 6 -a 0 -x {13.0 3.0 0 ------- null}
+ -t 0.723904 -s 8 -d 3 -p ack -e 40 -c 0 -i 6 -a 0 -x {13.0 3.0 0 ------- null}
- -t 0.723904 -s 8 -d 3 -p ack -e 40 -c 0 -i 6 -a 0 -x {13.0 3.0 0 ------- null}
h -t 0.723904 -s 8 -d 3 -p ack -e 40 -c 0 -i 6 -a 0 -x {13.0 3.0 -1 ------- null}
r -t 0.743968 -s 8 -d 3 -p ack -e 40 -c 0 -i 6 -a 0 -x {13.0 3.0 0 ------- null}
+ -t 0.743968 -s 3 -d 8 -p tcp -e 1040 -c 0 -i 12 -a 0 -x {3.0 13.0 1 ------- null}
- -t 0.743968 -s 3 -d 8 -p tcp -e 1040 -c 0 -i 12 -a 0 -x {3.0 13.0 1 ------- null}
h -t 0.743968 -s 3 -d 8 -p tcp -e 1040 -c 0 -i 12 -a 0 -x {3.0 13.0 -1 ------- null}
+ -t 0.743968 -s 3 -d 8 -p tcp -e 1040 -c 0 -i 13 -a 0 -x {3.0 13.0 2 ------- null}
- -t 0.745632 -s 3 -d 8 -p tcp -e 1040 -c 0 -i 13 -a 0 -x {3.0 13.0 2 ------- null}
h -t 0.745632 -s 3 -d 8 -p tcp -e 1040 -c 0 -i 13 -a 0 -x {3.0 13.0 -1 ------- null}
r -t 0.765632 -s 3 -d 8 -p tcp -e 1040 -c 0 -i 12 -a 0 -x {3.0 13.0 1 ------- null}
+ -t 0.765632 -s 8 -d 9 -p tcp -e 1040 -c 0 -i 12 -a 0 -x {3.0 13.0 1 ------- null}
- -t 0.765632 -s 8 -d 9 -p tcp -e 1040 -c 0 -i 12 -a 0 -x {3.0 13.0 1 ------- null}
h -t 0.765632 -s 8 -d 9 -p tcp -e 1040 -c 0 -i 12 -a 0 -x {3.0 13.0 -1 ------- null}
r -t 0.767296 -s 3 -d 8 -p tcp -e 1040 -c 0 -i 13 -a 0 -x {3.0 13.0 2 ------- null}
+ -t 0.767296 -s 8 -d 9 -p tcp -e 1040 -c 0 -i 13 -a 0 -x {3.0 13.0 2 ------- null}
- -t 0.782272 -s 8 -d 9 -p tcp -e 1040 -c 0 -i 13 -a 0 -x {3.0 13.0 2 ------- null}
h -t 0.782272 -s 8 -d 9 -p tcp -e 1040 -c 0 -i 13 -a 0 -x {3.0 13.0 -1 ------- null}
r -t 0.797632 -s 15 -d 14 -p tcp -e 1040 -c 0 -i 8 -a 0 -x {4.0 14.0 1 ------- null}
+ -t 0.797632 -s 14 -d 15 -p ack -e 40 -c 0 -i 14 -a 0 -x {14.0 4.0 1 ------- null}
- -t 0.797632 -s 14 -d 15 -p ack -e 40 -c 0 -i 14 -a 0 -x {14.0 4.0 1 ------- null}
h -t 0.797632 -s 14 -d 15 -p ack -e 40 -c 0 -i 14 -a 0 -x {14.0 4.0 -1 ------- null}
r -t 0.814272 -s 15 -d 14 -p tcp -e 1040 -c 0 -i 9 -a 0 -x {4.0 14.0 2 ------- null}
+ -t 0.814272 -s 14 -d 15 -p ack -e 40 -c 0 -i 15 -a 0 -x {14.0 4.0 2 ------- null}
- -t 0.814272 -s 14 -d 15 -p ack -e 40 -c 0 -i 15 -a 0 -x {14.0 4.0 2 ------- null}
h -t 0.814272 -s 14 -d 15 -p ack -e 40 -c 0 -i 15 -a 0 -x {14.0 4.0 -1 ------- null}
r -t 0.824544 -s 10 -d 15 -p ack -e 40 -c 0 -i 11 -a 0 -x {10.0 0.0 0 ------- null}
+ -t 0.824544 -s 15 -d 9 -p ack -e 40 -c 0 -i 11 -a 0 -x {10.0 0.0 0 ------- null}
- -t 0.824544 -s 15 -d 9 -p ack -e 40 -c 0 -i 11 -a 0 -x {10.0 0.0 0 ------- null}
h -t 0.824544 -s 15 -d 9 -p ack -e 40 -c 0 -i 11 -a 0 -x {10.0 0.0 -1 ------- null}
r -t 0.824544 -s 15 -d 9 -p ack -e 40 -c 0 -i 10 -a 0 -x {11.0 1.0 0 ------- null}
+ -t 0.824544 -s 9 -d 8 -p ack -e 40 -c 0 -i 10 -a 0 -x {11.0 1.0 0 ------- null}
- -t 0.824544 -s 9 -d 8 -p ack -e 40 -c 0 -i 10 -a 0 -x {11.0 1.0 0 ------- null}
h -t 0.824544 -s 9 -d 8 -p ack -e 40 -c 0 -i 10 -a 0 -x {11.0 1.0 -1 ------- null}
r -t 0.824544 -s 9 -d 8 -p ack -e 40 -c 0 -i 7 -a 0 -x {12.0 2.0 0 ------- null}
+ -t 0.824544 -s 8 -d 7 -p ack -e 40 -c 0 -i 7 -a 0 -x {12.0 2.0 0 ------- null}
- -t 0.824544 -s 8 -d 7 -p ack -e 40 -c 0 -i 7 -a 0 -x {12.0 2.0 0 ------- null}
h -t 0.824544 -s 8 -d 7 -p ack -e 40 -c 0 -i 7 -a 0 -x {12.0 2.0 -1 ------- null}
r -t 0.882272 -s 8 -d 9 -p tcp -e 1040 -c 0 -i 12 -a 0 -x {3.0 13.0 1 ------- null}
+ -t 0.882272 -s 9 -d 15 -p tcp -e 1040 -c 0 -i 12 -a 0 -x {3.0 13.0 1 ------- null}
- -t 0.882272 -s 9 -d 15 -p tcp -e 1040 -c 0 -i 12 -a 0 -x {3.0 13.0 1 ------- null}
h -t 0.882272 -s 9 -d 15 -p tcp -e 1040 -c 0 -i 12 -a 0 -x {3.0 13.0 -1 ------- null}
r -t 0.898272 -s 14 -d 15 -p ack -e 40 -c 0 -i 14 -a 0 -x {14.0 4.0 1 ------- null}
+ -t 0.898272 -s 15 -d 9 -p ack -e 40 -c 0 -i 14 -a 0 -x {14.0 4.0 1 ------- null}
- -t 0.898272 -s 15 -d 9 -p ack -e 40 -c 0 -i 14 -a 0 -x {14.0 4.0 1 ------- null}
h -t 0.898272 -s 15 -d 9 -p ack -e 40 -c 0 -i 14 -a 0 -x {14.0 4.0 -1 ------- null}
r -t 0.898912 -s 8 -d 9 -p tcp -e 1040 -c 0 -i 13 -a 0 -x {3.0 13.0 2 ------- null}
+ -t 0.898912 -s 9 -d 15 -p tcp -e 1040 -c 0 -i 13 -a 0 -x {3.0 13.0 2 ------- null}
- -t 0.898912 -s 9 -d 15 -p tcp -e 1040 -c 0 -i 13 -a 0 -x {3.0 13.0 2 ------- null}
h -t 0.898912 -s 9 -d 15 -p tcp -e 1040 -c 0 -i 13 -a 0 -x {3.0 13.0 -1 ------- null}
r -t 0.914912 -s 14 -d 15 -p ack -e 40 -c 0 -i 15 -a 0 -x {14.0 4.0 2 ------- null}
+ -t 0.914912 -s 15 -d 9 -p ack -e 40 -c 0 -i 15 -a 0 -x {14.0 4.0 2 ------- null}
- -t 0.914912 -s 15 -d 9 -p ack -e 40 -c 0 -i 15 -a 0 -x {14.0 4.0 2 ------- null}
h -t 0.914912 -s 15 -d 9 -p ack -e 40 -c 0 -i 15 -a 0 -x {14.0 4.0 -1 ------- null}
r -t 0.925184 -s 15 -d 9 -p ack -e 40 -c 0 -i 11 -a 0 -x {10.0 0.0 0 ------- null}
+ -t 0.925184 -s 9 -d 8 -p ack -e 40 -c 0 -i 11 -a 0 -x {10.0 0.0 0 ------- null}
- -t 0.925184 -s 9 -d 8 -p ack -e 40 -c 0 -i 11 -a 0 -x {10.0 0.0 0 ------- null}
h -t 0.925184 -s 9 -d 8 -p ack -e 40 -c 0 -i 11 -a 0 -x {10.0 0.0 -1 ------- null}
r -t 0.925184 -s 9 -d 8 -p ack -e 40 -c 0 -i 10 -a 0 -x {11.0 1.0 0 ------- null}
+ -t 0.925184 -s 8 -d 7 -p ack -e 40 -c 0 -i 10 -a 0 -x {11.0 1.0 0 ------- null}
- -t 0.925184 -s 8 -d 7 -p ack -e 40 -c 0 -i 10 -a 0 -x {11.0 1.0 0 ------- null}
h -t 0.925184 -s 8 -d 7 -p ack -e 40 -c 0 -i 10 -a 0 -x {11.0 1.0 -1 ------- null}
r -t 0.925184 -s 8 -d 7 -p ack -e 40 -c 0 -i 7 -a 0 -x {12.0 2.0 0 ------- null}
+ -t 0.925184 -s 7 -d 2 -p ack -e 40 -c 0 -i 7 -a 0 -x {12.0 2.0 0 ------- null}
- -t 0.925184 -s 7 -d 2 -p ack -e 40 -c 0 -i 7 -a 0 -x {12.0 2.0 0 ------- null}
h -t 0.925184 -s 7 -d 2 -p ack -e 40 -c 0 -i 7 -a 0 -x {12.0 2.0 -1 ------- null}
r -t 0.945248 -s 7 -d 2 -p ack -e 40 -c 0 -i 7 -a 0 -x {12.0 2.0 0 ------- null}
+ -t 0.945248 -s 2 -d 7 -p tcp -e 1040 -c 0 -i 16 -a 0 -x {2.0 12.0 1 ------- null}
- -t 0.945248 -s 2 -d 7 -p tcp -e 1040 -c 0 -i 16 -a 0 -x {2.0 12.0 1 ------- null}
h -t 0.945248 -s 2 -d 7 -p tcp -e 1040 -c 0 -i 16 -a 0 -x {2.0 12.0 -1 ------- null}
+ -t 0.945248 -s 2 -d 7 -p tcp -e 1040 -c 0 -i 17 -a 0 -x {2.0 12.0 2 ------- null}
- -t 0.946912 -s 2 -d 7 -p tcp -e 1040 -c 0 -i 17 -a 0 -x {2.0 12.0 2 ------- null}
h -t 0.946912 -s 2 -d 7 -p tcp -e 1040 -c 0 -i 17 -a 0 -x {2.0 12.0 -1 ------- null}
r -t 0.966912 -s 2 -d 7 -p tcp -e 1040 -c 0 -i 16 -a 0 -x {2.0 12.0 1 ------- null}
+ -t 0.966912 -s 7 -d 8 -p tcp -e 1040 -c 0 -i 16 -a 0 -x {2.0 12.0 1 ------- null}
- -t 0.966912 -s 7 -d 8 -p tcp -e 1040 -c 0 -i 16 -a 0 -x {2.0 12.0 1 ------- null}
h -t 0.966912 -s 7 -d 8 -p tcp -e 1040 -c 0 -i 16 -a 0 -x {2.0 12.0 -1 ------- null}
r -t 0.968576 -s 2 -d 7 -p tcp -e 1040 -c 0 -i 17 -a 0 -x {2.0 12.0 2 ------- null}
+ -t 0.968576 -s 7 -d 8 -p tcp -e 1040 -c 0 -i 17 -a 0 -x {2.0 12.0 2 ------- null}
- -t 0.983552 -s 7 -d 8 -p tcp -e 1040 -c 0 -i 17 -a 0 -x {2.0 12.0 2 ------- null}
h -t 0.983552 -s 7 -d 8 -p tcp -e 1040 -c 0 -i 17 -a 0 -x {2.0 12.0 -1 ------- null}
r -t 0.998912 -s 9 -d 15 -p tcp -e 1040 -c 0 -i 12 -a 0 -x {3.0 13.0 1 ------- null}
+ -t 0.998912 -s 15 -d 13 -p tcp -e 1040 -c 0 -i 12 -a 0 -x {3.0 13.0 1 ------- null}
- -t 0.998912 -s 15 -d 13 -p tcp -e 1040 -c 0 -i 12 -a 0 -x {3.0 13.0 1 ------- null}
h -t 0.998912 -s 15 -d 13 -p tcp -e 1040 -c 0 -i 12 -a 0 -x {3.0 13.0 -1 ------- null}
r -t 0.998912 -s 15 -d 9 -p ack -e 40 -c 0 -i 14 -a 0 -x {14.0 4.0 1 ------- null}
+ -t 0.998912 -s 9 -d 4 -p ack -e 40 -c 0 -i 14 -a 0 -x {14.0 4.0 1 ------- null}
- -t 0.998912 -s 9 -d 4 -p ack -e 40 -c 0 -i 14 -a 0 -x {14.0 4.0 1 ------- null}
h -t 0.998912 -s 9 -d 4 -p ack -e 40 -c 0 -i 14 -a 0 -x {14.0 4.0 -1 ------- null}
r -t 1.015552 -s 9 -d 15 -p tcp -e 1040 -c 0 -i 13 -a 0 -x {3.0 13.0 2 ------- null}
+ -t 1.015552 -s 15 -d 13 -p tcp -e 1040 -c 0 -i 13 -a 0 -x {3.0 13.0 2 ------- null}
r -t 1.015552 -s 15 -d 9 -p ack -e 40 -c 0 -i 15 -a 0 -x {14.0 4.0 2 ------- null}
+ -t 1.015552 -s 9 -d 4 -p ack -e 40 -c 0 -i 15 -a 0 -x {14.0 4.0 2 ------- null}
- -t 1.015552 -s 9 -d 4 -p ack -e 40 -c 0 -i 15 -a 0 -x {14.0 4.0 2 ------- null}
h -t 1.015552 -s 9 -d 4 -p ack -e 40 -c 0 -i 15 -a 0 -x {14.0 4.0 -1 ------- null}
- -t 1.015552 -s 15 -d 13 -p tcp -e 1040 -c 0 -i 13 -a 0 -x {3.0 13.0 2 ------- null}
h -t 1.015552 -s 15 -d 13 -p tcp -e 1040 -c 0 -i 13 -a 0 -x {3.0 13.0 -1 ------- null}
r -t 1.018976 -s 9 -d 4 -p ack -e 40 -c 0 -i 14 -a 0 -x {14.0 4.0 1 ------- null}
+ -t 1.018976 -s 4 -d 9 -p tcp -e 1040 -c 0 -i 18 -a 0 -x {4.0 14.0 3 ------- null}
- -t 1.018976 -s 4 -d 9 -p tcp -e 1040 -c 0 -i 18 -a 0 -x {4.0 14.0 3 ------- null}
h -t 1.018976 -s 4 -d 9 -p tcp -e 1040 -c 0 -i 18 -a 0 -x {4.0 14.0 -1 ------- null}
+ -t 1.018976 -s 4 -d 9 -p tcp -e 1040 -c 0 -i 19 -a 0 -x {4.0 14.0 4 ------- null}
- -t 1.02064 -s 4 -d 9 -p tcp -e 1040 -c 0 -i 19 -a 0 -x {4.0 14.0 4 ------- null}
h -t 1.02064 -s 4 -d 9 -p tcp -e 1040 -c 0 -i 19 -a 0 -x {4.0 14.0 -1 ------- null}
r -t 1.025824 -s 9 -d 8 -p ack -e 40 -c 0 -i 11 -a 0 -x {10.0 0.0 0 ------- null}
+ -t 1.025824 -s 8 -d 7 -p ack -e 40 -c 0 -i 11 -a 0 -x {10.0 0.0 0 ------- null}
- -t 1.025824 -s 8 -d 7 -p ack -e 40 -c 0 -i 11 -a 0 -x {10.0 0.0 0 ------- null}
h -t 1.025824 -s 8 -d 7 -p ack -e 40 -c 0 -i 11 -a 0 -x {10.0 0.0 -1 ------- null}
r -t 1.025824 -s 8 -d 7 -p ack -e 40 -c 0 -i 10 -a 0 -x {11.0 1.0 0 ------- null}
+ -t 1.025824 -s 7 -d 6 -p ack -e 40 -c 0 -i 10 -a 0 -x {11.0 1.0 0 ------- null}
- -t 1.025824 -s 7 -d 6 -p ack -e 40 -c 0 -i 10 -a 0 -x {11.0 1.0 0 ------- null}
h -t 1.025824 -s 7 -d 6 -p ack -e 40 -c 0 -i 10 -a 0 -x {11.0 1.0 -1 ------- null}
r -t 1.035616 -s 9 -d 4 -p ack -e 40 -c 0 -i 15 -a 0 -x {14.0 4.0 2 ------- null}
+ -t 1.035616 -s 4 -d 9 -p tcp -e 1040 -c 0 -i 20 -a 0 -x {4.0 14.0 5 ------- null}
- -t 1.035616 -s 4 -d 9 -p tcp -e 1040 -c 0 -i 20 -a 0 -x {4.0 14.0 5 ------- null}
h -t 1.035616 -s 4 -d 9 -p tcp -e 1040 -c 0 -i 20 -a 0 -x {4.0 14.0 -1 ------- null}
+ -t 1.035616 -s 4 -d 9 -p tcp -e 1040 -c 0 -i 21 -a 0 -x {4.0 14.0 6 ------- null}
- -t 1.03728 -s 4 -d 9 -p tcp -e 1040 -c 0 -i 21 -a 0 -x {4.0 14.0 6 ------- null}
h -t 1.03728 -s 4 -d 9 -p tcp -e 1040 -c 0 -i 21 -a 0 -x {4.0 14.0 -1 ------- null}
r -t 1.04064 -s 4 -d 9 -p tcp -e 1040 -c 0 -i 18 -a 0 -x {4.0 14.0 3 ------- null}
+ -t 1.04064 -s 9 -d 15 -p tcp -e 1040 -c 0 -i 18 -a 0 -x {4.0 14.0 3 ------- null}
- -t 1.04064 -s 9 -d 15 -p tcp -e 1040 -c 0 -i 18 -a 0 -x {4.0 14.0 3 ------- null}
h -t 1.04064 -s 9 -d 15 -p tcp -e 1040 -c 0 -i 18 -a 0 -x {4.0 14.0 -1 ------- null}
r -t 1.042304 -s 4 -d 9 -p tcp -e 1040 -c 0 -i 19 -a 0 -x {4.0 14.0 4 ------- null}
+ -t 1.042304 -s 9 -d 15 -p tcp -e 1040 -c 0 -i 19 -a 0 -x {4.0 14.0 4 ------- null}
r -t 1.05728 -s 4 -d 9 -p tcp -e 1040 -c 0 -i 20 -a 0 -x {4.0 14.0 5 ------- null}
+ -t 1.05728 -s 9 -d 15 -p tcp -e 1040 -c 0 -i 20 -a 0 -x {4.0 14.0 5 ------- null}
- -t 1.05728 -s 9 -d 15 -p tcp -e 1040 -c 0 -i 19 -a 0 -x {4.0 14.0 4 ------- null}
h -t 1.05728 -s 9 -d 15 -p tcp -e 1040 -c 0 -i 19 -a 0 -x {4.0 14.0 -1 ------- null}
r -t 1.058944 -s 4 -d 9 -p tcp -e 1040 -c 0 -i 21 -a 0 -x {4.0 14.0 6 ------- null}
+ -t 1.058944 -s 9 -d 15 -p tcp -e 1040 -c 0 -i 21 -a 0 -x {4.0 14.0 6 ------- null}
- -t 1.07392 -s 9 -d 15 -p tcp -e 1040 -c 0 -i 20 -a 0 -x {4.0 14.0 5 ------- null}
h -t 1.07392 -s 9 -d 15 -p tcp -e 1040 -c 0 -i 20 -a 0 -x {4.0 14.0 -1 ------- null}
r -t 1.083552 -s 7 -d 8 -p tcp -e 1040 -c 0 -i 16 -a 0 -x {2.0 12.0 1 ------- null}
+ -t 1.083552 -s 8 -d 9 -p tcp -e 1040 -c 0 -i 16 -a 0 -x {2.0 12.0 1 ------- null}
- -t 1.083552 -s 8 -d 9 -p tcp -e 1040 -c 0 -i 16 -a 0 -x {2.0 12.0 1 ------- null}
h -t 1.083552 -s 8 -d 9 -p tcp -e 1040 -c 0 -i 16 -a 0 -x {2.0 12.0 -1 ------- null}
- -t 1.09056 -s 9 -d 15 -p tcp -e 1040 -c 0 -i 21 -a 0 -x {4.0 14.0 6 ------- null}
h -t 1.09056 -s 9 -d 15 -p tcp -e 1040 -c 0 -i 21 -a 0 -x {4.0 14.0 -1 ------- null}
r -t 1.100192 -s 7 -d 8 -p tcp -e 1040 -c 0 -i 17 -a 0 -x {2.0 12.0 2 ------- null}
+ -t 1.100192 -s 8 -d 9 -p tcp -e 1040 -c 0 -i 17 -a 0 -x {2.0 12.0 2 ------- null}
- -t 1.100192 -s 8 -d 9 -p tcp -e 1040 -c 0 -i 17 -a 0 -x {2.0 12.0 2 ------- null}
h -t 1.100192 -s 8 -d 9 -p tcp -e 1040 -c 0 -i 17 -a 0 -x {2.0 12.0 -1 ------- null}
r -t 1.115552 -s 15 -d 13 -p tcp -e 1040 -c 0 -i 12 -a 0 -x {3.0 13.0 1 ------- null}
+ -t 1.115552 -s 13 -d 15 -p ack -e 40 -c 0 -i 22 -a 0 -x {13.0 3.0 1 ------- null}
- -t 1.115552 -s 13 -d 15 -p ack -e 40 -c 0 -i 22 -a 0 -x {13.0 3.0 1 ------- null}
h -t 1.115552 -s 13 -d 15 -p ack -e 40 -c 0 -i 22 -a 0 -x {13.0 3.0 -1 ------- null}
r -t 1.126464 -s 8 -d 7 -p ack -e 40 -c 0 -i 11 -a 0 -x {10.0 0.0 0 ------- null}
+ -t 1.126464 -s 7 -d 6 -p ack -e 40 -c 0 -i 11 -a 0 -x {10.0 0.0 0 ------- null}
- -t 1.126464 -s 7 -d 6 -p ack -e 40 -c 0 -i 11 -a 0 -x {10.0 0.0 0 ------- null}
h -t 1.126464 -s 7 -d 6 -p ack -e 40 -c 0 -i 11 -a 0 -x {10.0 0.0 -1 ------- null}
r -t 1.126464 -s 7 -d 6 -p ack -e 40 -c 0 -i 10 -a 0 -x {11.0 1.0 0 ------- null}
+ -t 1.126464 -s 6 -d 1 -p ack -e 40 -c 0 -i 10 -a 0 -x {11.0 1.0 0 ------- null}
- -t 1.126464 -s 6 -d 1 -p ack -e 40 -c 0 -i 10 -a 0 -x {11.0 1.0 0 ------- null}
h -t 1.126464 -s 6 -d 1 -p ack -e 40 -c 0 -i 10 -a 0 -x {11.0 1.0 -1 ------- null}
r -t 1.132192 -s 15 -d 13 -p tcp -e 1040 -c 0 -i 13 -a 0 -x {3.0 13.0 2 ------- null}
+ -t 1.132192 -s 13 -d 15 -p ack -e 40 -c 0 -i 23 -a 0 -x {13.0 3.0 2 ------- null}
- -t 1.132192 -s 13 -d 15 -p ack -e 40 -c 0 -i 23 -a 0 -x {13.0 3.0 2 ------- null}
h -t 1.132192 -s 13 -d 15 -p ack -e 40 -c 0 -i 23 -a 0 -x {13.0 3.0 -1 ------- null}
r -t 1.146528 -s 6 -d 1 -p ack -e 40 -c 0 -i 10 -a 0 -x {11.0 1.0 0 ------- null}
+ -t 1.146528 -s 1 -d 6 -p tcp -e 1040 -c 0 -i 24 -a 0 -x {1.0 11.0 1 ------- null}
- -t 1.146528 -s 1 -d 6 -p tcp -e 1040 -c 0 -i 24 -a 0 -x {1.0 11.0 1 ------- null}
h -t 1.146528 -s 1 -d 6 -p tcp -e 1040 -c 0 -i 24 -a 0 -x {1.0 11.0 -1 ------- null}
+ -t 1.146528 -s 1 -d 6 -p tcp -e 1040 -c 0 -i 25 -a 0 -x {1.0 11.0 2 ------- null}
- -t 1.148192 -s 1 -d 6 -p tcp -e 1040 -c 0 -i 25 -a 0 -x {1.0 11.0 2 ------- null}
h -t 1.148192 -s 1 -d 6 -p tcp -e 1040 -c 0 -i 25 -a 0 -x {1.0 11.0 -1 ------- null}
r -t 1.15728 -s 9 -d 15 -p tcp -e 1040 -c 0 -i 18 -a 0 -x {4.0 14.0 3 ------- null}
+ -t 1.15728 -s 15 -d 14 -p tcp -e 1040 -c 0 -i 18 -a 0 -x {4.0 14.0 3 ------- null}
- -t 1.15728 -s 15 -d 14 -p tcp -e 1040 -c 0 -i 18 -a 0 -x {4.0 14.0 3 ------- null}
h -t 1.15728 -s 15 -d 14 -p tcp -e 1040 -c 0 -i 18 -a 0 -x {4.0 14.0 -1 ------- null}
r -t 1.168192 -s 1 -d 6 -p tcp -e 1040 -c 0 -i 24 -a 0 -x {1.0 11.0 1 ------- null}