+ 0.1 0 5 tcp 40 ------- 0 0.0 10.0 0 0
- 0.1 0 5 tcp 40 ------- 0 0.0 10.0 0 0
+ 0.1 1 6 tcp 40 ------- 0 1.0 11.0 0 1
- 0.1 1 6 tcp 40 ------- 0 1.0 11.0 0 1
+ 0.1 2 7 tcp 40 ------- 0 2.0 12.0 0 2
- 0.1 2 7 tcp 40 ------- 0 2.0 12.0 0 2
+ 0.1 3 8 tcp 40 ------- 0 3.0 13.0 0 3
- 0.1 3 8 tcp 40 ------- 0 3.0 13.0 0 3
+ 0.1 4 9 tcp 40 ------- 0 4.0 14.0 0 4
- 0.1 4 9 tcp 40 ------- 0 4.0 14.0 0 4
r 0.120064 0 5 tcp 40 ------- 0 0.0 10.0 0 0
+ 0.120064 5 6 tcp 40 ------- 0 0.0 10.0 0 0
- 0.120064 5 6 tcp 40 ------- 0 0.0 10.0 0 0
r 0.120064 1 6 tcp 40 ------- 0 1.0 11.0 0 1
+ 0.120064 6 7 tcp 40 ------- 0 1.0 11.0 0 1
- 0.120064 6 7 tcp 40 ------- 0 1.0 11.0 0 1
r 0.120064 2 7 tcp 40 ------- 0 2.0 12.0 0 2
+ 0.120064 7 8 tcp 40 ------- 0 2.0 12.0 0 2
- 0.120064 7 8 tcp 40 ------- 0 2.0 12.0 0 2
r 0.120064 3 8 tcp 40 ------- 0 3.0 13.0 0 3
+ 0.120064 8 9 tcp 40 ------- 0 3.0 13.0 0 3
- 0.120064 8 9 tcp 40 ------- 0 3.0 13.0 0 3
r 0.120064 4 9 tcp 40 ------- 0 4.0 14.0 0 4
+ 0.120064 9 15 tcp 40 ------- 0 4.0 14.0 0 4
- 0.120064 9 15 tcp 40 ------- 0 4.0 14.0 0 4
r 0.220704 5 6 tcp 40 ------- 0 0.0 10.0 0 0
+ 0.220704 6 7 tcp 40 ------- 0 0.0 10.0 0 0
- 0.220704 6 7 tcp 40 ------- 0 0.0 10.0 0 0
r 0.220704 6 7 tcp 40 ------- 0 1.0 11.0 0 1
+ 0.220704 7 8 tcp 40 ------- 0 1.0 11.0 0 1
- 0.220704 7 8 tcp 40 ------- 0 1.0 11.0 0 1
r 0.220704 7 8 tcp 40 ------- 0 2.0 12.0 0 2
+ 0.220704 8 9 tcp 40 ------- 0 2.0 12.0 0 2
- 0.220704 8 9 tcp 40 ------- 0 2.0 12.0 0 2
r 0.220704 8 9 tcp 40 ------- 0 3.0 13.0 0 3
+ 0.220704 9 15 tcp 40 ------- 0 3.0 13.0 0 3
- 0.220704 9 15 tcp 40 ------- 0 3.0 13.0 0 3
r 0.220704 9 15 tcp 40 ------- 0 4.0 14.0 0 4
+ 0.220704 15 14 tcp 40 ------- 0 4.0 14.0 0 4
- 0.220704 15 14 tcp 40 ------- 0 4.0 14.0 0 4
r 0.321344 6 7 tcp 40 ------- 0 0.0 10.0 0 0
+ 0.321344 7 8 tcp 40 ------- 0 0.0 10.0 0 0
- 0.321344 7 8 tcp 40 ------- 0 0.0 10.0 0 0
r 0.321344 7 8 tcp 40 ------- 0 1.0 11.0 0 1
+ 0.321344 8 9 tcp 40 ------- 0 1.0 11.0 0 1
- 0.321344 8 9 tcp 40 ------- 0 1.0 11.0 0 1
r 0.321344 8 9 tcp 40 ------- 0 2.0 12.0 0 2
+ 0.321344 9 15 tcp 40 ------- 0 2.0 12.0 0 2
- 0.321344 9 15 tcp 40 ------- 0 2.0 12.0 0 2
r 0.321344 9 15 tcp 40 ------- 0 3.0 13.0 0 3
+ 0.321344 15 13 tcp 40 ------- 0 3.0 13.0 0 3
- 0.321344 15 13 tcp 40 ------- 0 3.0 13.0 0 3
r 0.321344 15 14 tcp 40 ------- 0 4.0 14.0 0 4
+ 0.321344 14 15 ack 40 ------- 0 14.0 4.0 0 5
- 0.321344 14 15 ack 40 ------- 0 14.0 4.0 0 5
r 0.421984 7 8 tcp 40 ------- 0 0.0 10.0 0 0
+ 0.421984 8 9 tcp 40 ------- 0 0.0 10.0 0 0
- 0.421984 8 9 tcp 40 ------- 0 0.0 10.0 0 0
r 0.421984 8 9 tcp 40 ------- 0 1.0 11.0 0 1
+ 0.421984 9 15 tcp 40 ------- 0 1.0 11.0 0 1
- 0.421984 9 15 tcp 40 ------- 0 1.0 11.0 0 1
r 0.421984 9 15 tcp 40 ------- 0 2.0 12.0 0 2
+ 0.421984 15 12 tcp 40 ------- 0 2.0 12.0 0 2
- 0.421984 15 12 tcp 40 ------- 0 2.0 12.0 0 2
r 0.421984 15 13 tcp 40 ------- 0 3.0 13.0 0 3
+ 0.421984 13 15 ack 40 ------- 0 13.0 3.0 0 6
- 0.421984 13 15 ack 40 ------- 0 13.0 3.0 0 6
r 0.421984 14 15 ack 40 ------- 0 14.0 4.0 0 5
+ 0.421984 15 9 ack 40 ------- 0 14.0 4.0 0 5
- 0.421984 15 9 ack 40 ------- 0 14.0 4.0 0 5
r 0.522624 8 9 tcp 40 ------- 0 0.0 10.0 0 0
+ 0.522624 9 15 tcp 40 ------- 0 0.0 10.0 0 0
- 0.522624 9 15 tcp 40 ------- 0 0.0 10.0 0 0
r 0.522624 9 15 tcp 40 ------- 0 1.0 11.0 0 1
+ 0.522624 15 11 tcp 40 ------- 0 1.0 11.0 0 1
- 0.522624 15 11 tcp 40 ------- 0 1.0 11.0 0 1
r 0.522624 15 12 tcp 40 ------- 0 2.0 12.0 0 2
+ 0.522624 12 15 ack 40 ------- 0 12.0 2.0 0 7
- 0.522624 12 15 ack 40 ------- 0 12.0 2.0 0 7
r 0.522624 13 15 ack 40 ------- 0 13.0 3.0 0 6
+ 0.522624 15 9 ack 40 ------- 0 13.0 3.0 0 6
- 0.522624 15 9 ack 40 ------- 0 13.0 3.0 0 6
r 0.522624 15 9 ack 40 ------- 0 14.0 4.0 0 5
+ 0.522624 9 4 ack 40 ------- 0 14.0 4.0 0 5
- 0.522624 9 4 ack 40 ------- 0 14.0 4.0 0 5
r 0.542688 9 4 ack 40 ------- 0 14.0 4.0 0 5
+ 0.542688 4 9 tcp 1040 ------- 0 4.0 14.0 1 8
- 0.542688 4 9 tcp 1040 ------- 0 4.0 14.0 1 8
+ 0.542688 4 9 tcp 1040 ------- 0 4.0 14.0 2 9
- 0.544352 4 9 tcp 1040 ------- 0 4.0 14.0 2 9
r 0.564352 4 9 tcp 1040 ------- 0 4.0 14.0 1 8
+ 0.564352 9 15 tcp 1040 ------- 0 4.0 14.0 1 8
- 0.564352 9 15 tcp 1040 ------- 0 4.0 14.0 1 8
r 0.566016 4 9 tcp 1040 ------- 0 4.0 14.0 2 9
+ 0.566016 9 15 tcp 1040 ------- 0 4.0 14.0 2 9
- 0.580992 9 15 tcp 1040 ------- 0 4.0 14.0 2 9
r 0.623264 9 15 tcp 40 ------- 0 0.0 10.0 0 0
+ 0.623264 15 10 tcp 40 ------- 0 0.0 10.0 0 0
- 0.623264 15 10 tcp 40 ------- 0 0.0 10.0 0 0
r 0.623264 15 11 tcp 40 ------- 0 1.0 11.0 0 1
+ 0.623264 11 15 ack 40 ------- 0 11.0 1.0 0 10
- 0.623264 11 15 ack 40 ------- 0 11.0 1.0 0 10
r 0.623264 12 15 ack 40 ------- 0 12.0 2.0 0 7
+ 0.623264 15 9 ack 40 ------- 0 12.0 2.0 0 7
- 0.623264 15 9 ack 40 ------- 0 12.0 2.0 0 7
r 0.623264 15 9 ack 40 ------- 0 13.0 3.0 0 6
+ 0.623264 9 8 ack 40 ------- 0 13.0 3.0 0 6
- 0.623264 9 8 ack 40 ------- 0 13.0 3.0 0 6
r 0.680992 9 15 tcp 1040 ------- 0 4.0 14.0 1 8
+ 0.680992 15 14 tcp 1040 ------- 0 4.0 14.0 1 8
- 0.680992 15 14 tcp 1040 ------- 0 4.0 14.0 1 8
r 0.697632 9 15 tcp 1040 ------- 0 4.0 14.0 2 9
+ 0.697632 15 14 tcp 1040 ------- 0 4.0 14.0 2 9
- 0.697632 15 14 tcp 1040 ------- 0 4.0 14.0 2 9
r 0.723904 15 10 tcp 40 ------- 0 0.0 10.0 0 0
+ 0.723904 10 15 ack 40 ------- 0 10.0 0.0 0 11
- 0.723904 10 15 ack 40 ------- 0 10.0 0.0 0 11
r 0.723904 11 15 ack 40 ------- 0 11.0 1.0 0 10
+ 0.723904 15 9 ack 40 ------- 0 11.0 1.0 0 10
- 0.723904 15 9 ack 40 ------- 0 11.0 1.0 0 10
r 0.723904 15 9 ack 40 ------- 0 12.0 2.0 0 7
+ 0.723904 9 8 ack 40 ------- 0 12.0 2.0 0 7
- 0.723904 9 8 ack 40 ------- 0 12.0 2.0 0 7
r 0.723904 9 8 ack 40 ------- 0 13.0 3.0 0 6
+ 0.723904 8 3 ack 40 ------- 0 13.0 3.0 0 6
- 0.723904 8 3 ack 40 ------- 0 13.0 3.0 0 6
r 0.743968 8 3 ack 40 ------- 0 13.0 3.0 0 6
+ 0.743968 3 8 tcp 1040 ------- 0 3.0 13.0 1 12
- 0.743968 3 8 tcp 1040 ------- 0 3.0 13.0 1 12
+ 0.743968 3 8 tcp 1040 ------- 0 3.0 13.0 2 13
- 0.745632 3 8 tcp 1040 ------- 0 3.0 13.0 2 13
r 0.765632 3 8 tcp 1040 ------- 0 3.0 13.0 1 12
+ 0.765632 8 9 tcp 1040 ------- 0 3.0 13.0 1 12
- 0.765632 8 9 tcp 1040 ------- 0 3.0 13.0 1 12
r 0.767296 3 8 tcp 1040 ------- 0 3.0 13.0 2 13
+ 0.767296 8 9 tcp 1040 ------- 0 3.0 13.0 2 13
- 0.782272 8 9 tcp 1040 ------- 0 3.0 13.0 2 13
r 0.797632 15 14 tcp 1040 ------- 0 4.0 14.0 1 8
+ 0.797632 14 15 ack 40 ------- 0 14.0 4.0 1 14
- 0.797632 14 15 ack 40 ------- 0 14.0 4.0 1 14
r 0.814272 15 14 tcp 1040 ------- 0 4.0 14.0 2 9
+ 0.814272 14 15 ack 40 ------- 0 14.0 4.0 2 15
- 0.814272 14 15 ack 40 ------- 0 14.0 4.0 2 15
r 0.824544 10 15 ack 40 ------- 0 10.0 0.0 0 11
+ 0.824544 15 9 ack 40 ------- 0 10.0 0.0 0 11
- 0.824544 15 9 ack 40 ------- 0 10.0 0.0 0 11
r 0.824544 15 9 ack 40 ------- 0 11.0 1.0 0 10
+ 0.824544 9 8 ack 40 ------- 0 11.0 1.0 0 10
- 0.824544 9 8 ack 40 ------- 0 11.0 1.0 0 10
r 0.824544 9 8 ack 40 ------- 0 12.0 2.0 0 7
+ 0.824544 8 7 ack 40 ------- 0 12.0 2.0 0 7
- 0.824544 8 7 ack 40 ------- 0 12.0 2.0 0 7
r 0.882272 8 9 tcp 1040 ------- 0 3.0 13.0 1 12
+ 0.882272 9 15 tcp 1040 ------- 0 3.0 13.0 1 12
- 0.882272 9 15 tcp 1040 ------- 0 3.0 13.0 1 12
r 0.898272 14 15 ack 40 ------- 0 14.0 4.0 1 14
+ 0.898272 15 9 ack 40 ------- 0 14.0 4.0 1 14
- 0.898272 15 9 ack 40 ------- 0 14.0 4.0 1 14
r 0.898912 8 9 tcp 1040 ------- 0 3.0 13.0 2 13
+ 0.898912 9 15 tcp 1040 ------- 0 3.0 13.0 2 13
- 0.898912 9 15 tcp 1040 ------- 0 3.0 13.0 2 13
r 0.914912 14 15 ack 40 ------- 0 14.0 4.0 2 15
+ 0.914912 15 9 ack 40 ------- 0 14.0 4.0 2 15
- 0.914912 15 9 ack 40 ------- 0 14.0 4.0 2 15
r 0.925184 15 9 ack 40 ------- 0 10.0 0.0 0 11
+ 0.925184 9 8 ack 40 ------- 0 10.0 0.0 0 11
- 0.925184 9 8 ack 40 ------- 0 10.0 0.0 0 11
r 0.925184 9 8 ack 40 ------- 0 11.0 1.0 0 10
+ 0.925184 8 7 ack 40 ------- 0 11.0 1.0 0 10
- 0.925184 8 7 ack 40 ------- 0 11.0 1.0 0 10
r 0.925184 8 7 ack 40 ------- 0 12.0 2.0 0 7
+ 0.925184 7 2 ack 40 ------- 0 12.0 2.0 0 7
- 0.925184 7 2 ack 40 ------- 0 12.0 2.0 0 7
r 0.945248 7 2 ack 40 ------- 0 12.0 2.0 0 7
+ 0.945248 2 7 tcp 1040 ------- 0 2.0 12.0 1 16
- 0.945248 2 7 tcp 1040 ------- 0 2.0 12.0 1 16
+ 0.945248 2 7 tcp 1040 ------- 0 2.0 12.0 2 17
- 0.946912 2 7 tcp 1040 ------- 0 2.0 12.0 2 17
r 0.966912 2 7 tcp 1040 ------- 0 2.0 12.0 1 16
+ 0.966912 7 8 tcp 1040 ------- 0 2.0 12.0 1 16
- 0.966912 7 8 tcp 1040 ------- 0 2.0 12.0 1 16
r 0.968576 2 7 tcp 1040 ------- 0 2.0 12.0 2 17
+ 0.968576 7 8 tcp 1040 ------- 0 2.0 12.0 2 17
- 0.983552 7 8 tcp 1040 ------- 0 2.0 12.0 2 17
r 0.998912 9 15 tcp 1040 ------- 0 3.0 13.0 1 12
+ 0.998912 15 13 tcp 1040 ------- 0 3.0 13.0 1 12
- 0.998912 15 13 tcp 1040 ------- 0 3.0 13.0 1 12
r 0.998912 15 9 ack 40 ------- 0 14.0 4.0 1 14
+ 0.998912 9 4 ack 40 ------- 0 14.0 4.0 1 14
- 0.998912 9 4 ack 40 ------- 0 14.0 4.0 1 14
r 1.015552 9 15 tcp 1040 ------- 0 3.0 13.0 2 13
+ 1.015552 15 13 tcp 1040 ------- 0 3.0 13.0 2 13
r 1.015552 15 9 ack 40 ------- 0 14.0 4.0 2 15
+ 1.015552 9 4 ack 40 ------- 0 14.0 4.0 2 15
- 1.015552 9 4 ack 40 ------- 0 14.0 4.0 2 15
- 1.015552 15 13 tcp 1040 ------- 0 3.0 13.0 2 13
r 1.018976 9 4 ack 40 ------- 0 14.0 4.0 1 14
+ 1.018976 4 9 tcp 1040 ------- 0 4.0 14.0 3 18
- 1.018976 4 9 tcp 1040 ------- 0 4.0 14.0 3 18
+ 1.018976 4 9 tcp 1040 ------- 0 4.0 14.0 4 19
- 1.02064 4 9 tcp 1040 ------- 0 4.0 14.0 4 19
r 1.025824 9 8 ack 40 ------- 0 10.0 0.0 0 11
+ 1.025824 8 7 ack 40 ------- 0 10.0 0.0 0 11
- 1.025824 8 7 ack 40 ------- 0 10.0 0.0 0 11
r 1.025824 8 7 ack 40 ------- 0 11.0 1.0 0 10
+ 1.025824 7 6 ack 40 ------- 0 11.0 1.0 0 10
- 1.025824 7 6 ack 40 ------- 0 11.0 1.0 0 10
r 1.035616 9 4 ack 40 ------- 0 14.0 4.0 2 15
+ 1.035616 4 9 tcp 1040 ------- 0 4.0 14.0 5 20
- 1.035616 4 9 tcp 1040 ------- 0 4.0 14.0 5 20
+ 1.035616 4 9 tcp 1040 ------- 0 4.0 14.0 6 21
- 1.03728 4 9 tcp 1040 ------- 0 4.0 14.0 6 21
r 1.04064 4 9 tcp 1040 ------- 0 4.0 14.0 3 18
+ 1.04064 9 15 tcp 1040 ------- 0 4.0 14.0 3 18
- 1.04064 9 15 tcp 1040 ------- 0 4.0 14.0 3 18
r 1.042304 4 9 tcp 1040 ------- 0 4.0 14.0 4 19
+ 1.042304 9 15 tcp 1040 ------- 0 4.0 14.0 4 19
r 1.05728 4 9 tcp 1040 ------- 0 4.0 14.0 5 20
+ 1.05728 9 15 tcp 1040 ------- 0 4.0 14.0 5 20
- 1.05728 9 15 tcp 1040 ------- 0 4.0 14.0 4 19
r 1.058944 4 9 tcp 1040 ------- 0 4.0 14.0 6 21
+ 1.058944 9 15 tcp 1040 ------- 0 4.0 14.0 6 21
- 1.07392 9 15 tcp 1040 ------- 0 4.0 14.0 5 20
r 1.083552 7 8 tcp 1040 ------- 0 2.0 12.0 1 16
+ 1.083552 8 9 tcp 1040 ------- 0 2.0 12.0 1 16
- 1.083552 8 9 tcp 1040 ------- 0 2.0 12.0 1 16
- 1.09056 9 15 tcp 1040 ------- 0 4.0 14.0 6 21
r 1.100192 7 8 tcp 1040 ------- 0 2.0 12.0 2 17
+ 1.100192 8 9 tcp 1040 ------- 0 2.0 12.0 2 17
- 1.100192 8 9 tcp 1040 ------- 0 2.0 12.0 2 17
r 1.115552 15 13 tcp 1040 ------- 0 3.0 13.0 1 12
+ 1.115552 13 15 ack 40 ------- 0 13.0 3.0 1 22
- 1.115552 13 15 ack 40 ------- 0 13.0 3.0 1 22
r 1.126464 8 7 ack 40 ------- 0 10.0 0.0 0 11
+ 1.126464 7 6 ack 40 ------- 0 10.0 0.0 0 11
- 1.126464 7 6 ack 40 ------- 0 10.0 0.0 0 11
r 1.126464 7 6 ack 40 ------- 0 11.0 1.0 0 10
+ 1.126464 6 1 ack 40 ------- 0 11.0 1.0 0 10
- 1.126464 6 1 ack 40 ------- 0 11.0 1.0 0 10
r 1.132192 15 13 tcp 1040 ------- 0 3.0 13.0 2 13
+ 1.132192 13 15 ack 40 ------- 0 13.0 3.0 2 23
- 1.132192 13 15 ack 40 ------- 0 13.0 3.0 2 23
r 1.146528 6 1 ack 40 ------- 0 11.0 1.0 0 10
+ 1.146528 1 6 tcp 1040 ------- 0 1.0 11.0 1 24
- 1.146528 1 6 tcp 1040 ------- 0 1.0 11.0 1 24
+ 1.146528 1 6 tcp 1040 ------- 0 1.0 11.0 2 25
- 1.148192 1 6 tcp 1040 ------- 0 1.0 11.0 2 25
r 1.15728 9 15 tcp 1040 ------- 0 4.0 14.0 3 18
+ 1.15728 15 14 tcp 1040 ------- 0 4.0 14.0 3 18
- 1.15728 15 14 tcp 1040 ------- 0 4.0 14.0 3 18
r 1.168192 1 6 tcp 1040 ------- 0 1.0 11.0 1 24
+ 1.168192 6 7 tcp 1040 ------- 0 1.0 11.0 1 24
- 1.168192 6 7 tcp 1040 ------- 0 1.0 11.0 1 24
r 1.169856 1 6 tcp 1040 ------- 0 1.0 11.0 2 25
+ 1.169856 6 7 tcp 1040 ------- 0 1.0 11.0 2 25
r 1.17392 9 15 tcp 1040 ------- 0 4.0 14.0 4 19
+ 1.17392 15 14 tcp 1040 ------- 0 4.0 14.0 4 19
- 1.17392 15 14 tcp 1040 ------- 0 4.0 14.0 4 19
- 1.184832 6 7 tcp 1040 ------- 0 1.0 11.0 2 25
r 1.19056 9 15 tcp 1040 ------- 0 4.0 14.0 5 20
+ 1.19056 15 14 tcp 1040 ------- 0 4.0 14.0 5 20
- 1.19056 15 14 tcp 1040 ------- 0 4.0 14.0 5 20
r 1.200192 8 9 tcp 1040 ------- 0 2.0 12.0 1 16
+ 1.200192 9 15 tcp 1040 ------- 0 2.0 12.0 1 16
- 1.200192 9 15 tcp 1040 ------- 0 2.0 12.0 1 16
r 1.2072 9 15 tcp 1040 ------- 0 4.0 14.0 6 21
+ 1.2072 15 14 tcp 1040 ------- 0 4.0 14.0 6 21
- 1.2072 15 14 tcp 1040 ------- 0 4.0 14.0 6 21
r 1.216192 13 15 ack 40 ------- 0 13.0 3.0 1 22
+ 1.216192 15 9 ack 40 ------- 0 13.0 3.0 1 22
- 1.216192 15 9 ack 40 ------- 0 13.0 3.0 1 22
r 1.216832 8 9 tcp 1040 ------- 0 2.0 12.0 2 17
+ 1.216832 9 15 tcp 1040 ------- 0 2.0 12.0 2 17
- 1.216832 9 15 tcp 1040 ------- 0 2.0 12.0 2 17
r 1.227104 7 6 ack 40 ------- 0 10.0 0.0 0 11
+ 1.227104 6 5 ack 40 ------- 0 10.0 0.0 0 11
- 1.227104 6 5 ack 40 ------- 0 10.0 0.0 0 11
r 1.232832 13 15 ack 40 ------- 0 13.0 3.0 2 23
+ 1.232832 15 9 ack 40 ------- 0 13.0 3.0 2 23
- 1.232832 15 9 ack 40 ------- 0 13.0 3.0 2 23
r 1.27392 15 14 tcp 1040 ------- 0 4.0 14.0 3 18
+ 1.27392 14 15 ack 40 ------- 0 14.0 4.0 3 26
- 1.27392 14 15 ack 40 ------- 0 14.0 4.0 3 26
r 1.284832 6 7 tcp 1040 ------- 0 1.0 11.0 1 24
+ 1.284832 7 8 tcp 1040 ------- 0 1.0 11.0 1 24
- 1.284832 7 8 tcp 1040 ------- 0 1.0 11.0 1 24
r 1.29056 15 14 tcp 1040 ------- 0 4.0 14.0 4 19
+ 1.29056 14 15 ack 40 ------- 0 14.0 4.0 4 27
- 1.29056 14 15 ack 40 ------- 0 14.0 4.0 4 27
r 1.301472 6 7 tcp 1040 ------- 0 1.0 11.0 2 25
+ 1.301472 7 8 tcp 1040 ------- 0 1.0 11.0 2 25
- 1.301472 7 8 tcp 1040 ------- 0 1.0 11.0 2 25
r 1.3072 15 14 tcp 1040 ------- 0 4.0 14.0 5 20
+ 1.3072 14 15 ack 40 ------- 0 14.0 4.0 5 28
- 1.3072 14 15 ack 40 ------- 0 14.0 4.0 5 28
r 1.316832 15 9 ack 40 ------- 0 13.0 3.0 1 22
+ 1.316832 9 8 ack 40 ------- 0 13.0 3.0 1 22
- 1.316832 9 8 ack 40 ------- 0 13.0 3.0 1 22
r 1.316832 9 15 tcp 1040 ------- 0 2.0 12.0 1 16
+ 1.316832 15 12 tcp 1040 ------- 0 2.0 12.0 1 16
- 1.316832 15 12 tcp 1040 ------- 0 2.0 12.0 1 16
r 1.32384 15 14 tcp 1040 ------- 0 4.0 14.0 6 21
+ 1.32384 14 15 ack 40 ------- 0 14.0 4.0 6 29
- 1.32384 14 15 ack 40 ------- 0 14.0 4.0 6 29
r 1.327744 6 5 ack 40 ------- 0 10.0 0.0 0 11
+ 1.327744 5 0 ack 40 ------- 0 10.0 0.0 0 11
- 1.327744 5 0 ack 40 ------- 0 10.0 0.0 0 11
r 1.333472 15 9 ack 40 ------- 0 13.0 3.0 2 23
+ 1.333472 9 8 ack 40 ------- 0 13.0 3.0 2 23
- 1.333472 9 8 ack 40 ------- 0 13.0 3.0 2 23
r 1.333472 9 15 tcp 1040 ------- 0 2.0 12.0 2 17
+ 1.333472 15 12 tcp 1040 ------- 0 2.0 12.0 2 17
- 1.333472 15 12 tcp 1040 ------- 0 2.0 12.0 2 17
r 1.347808 5 0 ack 40 ------- 0 10.0 0.0 0 11
+ 1.347808 0 5 tcp 1040 ------- 0 0.0 10.0 1 30
- 1.347808 0 5 tcp 1040 ------- 0 0.0 10.0 1 30
+ 1.347808 0 5 tcp 1040 ------- 0 0.0 10.0 2 31
- 1.349472 0 5 tcp 1040 ------- 0 0.0 10.0 2 31
r 1.369472 0 5 tcp 1040 ------- 0 0.0 10.0 1 30
+ 1.369472 5 6 tcp 1040 ------- 0 0.0 10.0 1 30
- 1.369472 5 6 tcp 1040 ------- 0 0.0 10.0 1 30
r 1.371136 0 5 tcp 1040 ------- 0 0.0 10.0 2 31
+ 1.371136 5 6 tcp 1040 ------- 0 0.0 10.0 2 31
r 1.37456 14 15 ack 40 ------- 0 14.0 4.0 3 26
+ 1.37456 15 9 ack 40 ------- 0 14.0 4.0 3 26
- 1.37456 15 9 ack 40 ------- 0 14.0 4.0 3 26
- 1.386112 5 6 tcp 1040 ------- 0 0.0 10.0 2 31
r 1.3912 14 15 ack 40 ------- 0 14.0 4.0 4 27
+ 1.3912 15 9 ack 40 ------- 0 14.0 4.0 4 27
- 1.3912 15 9 ack 40 ------- 0 14.0 4.0 4 27
r 1.401472 7 8 tcp 1040 ------- 0 1.0 11.0 1 24
+ 1.401472 8 9 tcp 1040 ------- 0 1.0 11.0 1 24
- 1.401472 8 9 tcp 1040 ------- 0 1.0 11.0 1 24
r 1.40784 14 15 ack 40 ------- 0 14.0 4.0 5 28
+ 1.40784 15 9 ack 40 ------- 0 14.0 4.0 5 28
- 1.40784 15 9 ack 40 ------- 0 14.0 4.0 5 28
r 1.417472 9 8 ack 40 ------- 0 13.0 3.0 1 22
+ 1.417472 8 3 ack 40 ------- 0 13.0 3.0 1 22
- 1.417472 8 3 ack 40 ------- 0 13.0 3.0 1 22
r 1.418112 7 8 tcp 1040 ------- 0 1.0 11.0 2 25
+ 1.418112 8 9 tcp 1040 ------- 0 1.0 11.0 2 25
- 1.418112 8 9 tcp 1040 ------- 0 1.0 11.0 2 25
r 1.42448 14 15 ack 40 ------- 0 14.0 4.0 6 29
+ 1.42448 15 9 ack 40 ------- 0 14.0 4.0 6 29
- 1.42448 15 9 ack 40 ------- 0 14.0 4.0 6 29
r 1.433472 15 12 tcp 1040 ------- 0 2.0 12.0 1 16
+ 1.433472 12 15 ack 40 ------- 0 12.0 2.0 1 32
- 1.433472 12 15 ack 40 ------- 0 12.0 2.0 1 32
r 1.434112 9 8 ack 40 ------- 0 13.0 3.0 2 23
+ 1.434112 8 3 ack 40 ------- 0 13.0 3.0 2 23
- 1.434112 8 3 ack 40 ------- 0 13.0 3.0 2 23
r 1.437536 8 3 ack 40 ------- 0 13.0 3.0 1 22
+ 1.437536 3 8 tcp 1040 ------- 0 3.0 13.0 3 33
- 1.437536 3 8 tcp 1040 ------- 0 3.0 13.0 3 33
+ 1.437536 3 8 tcp 1040 ------- 0 3.0 13.0 4 34
- 1.4392 3 8 tcp 1040 ------- 0 3.0 13.0 4 34
r 1.450112 15 12 tcp 1040 ------- 0 2.0 12.0 2 17
+ 1.450112 12 15 ack 40 ------- 0 12.0 2.0 2 35
- 1.450112 12 15 ack 40 ------- 0 12.0 2.0 2 35
r 1.454176 8 3 ack 40 ------- 0 13.0 3.0 2 23
+ 1.454176 3 8 tcp 1040 ------- 0 3.0 13.0 5 36
- 1.454176 3 8 tcp 1040 ------- 0 3.0 13.0 5 36
+ 1.454176 3 8 tcp 1040 ------- 0 3.0 13.0 6 37
- 1.45584 3 8 tcp 1040 ------- 0 3.0 13.0 6 37
r 1.4592 3 8 tcp 1040 ------- 0 3.0 13.0 3 33
+ 1.4592 8 9 tcp 1040 ------- 0 3.0 13.0 3 33
- 1.4592 8 9 tcp 1040 ------- 0 3.0 13.0 3 33
r 1.460864 3 8 tcp 1040 ------- 0 3.0 13.0 4 34
+ 1.460864 8 9 tcp 1040 ------- 0 3.0 13.0 4 34
r 1.4752 15 9 ack 40 ------- 0 14.0 4.0 3 26
+ 1.4752 9 4 ack 40 ------- 0 14.0 4.0 3 26
- 1.4752 9 4 ack 40 ------- 0 14.0 4.0 3 26
r 1.47584 3 8 tcp 1040 ------- 0 3.0 13.0 5 36
+ 1.47584 8 9 tcp 1040 ------- 0 3.0 13.0 5 36
- 1.47584 8 9 tcp 1040 ------- 0 3.0 13.0 4 34
r 1.477504 3 8 tcp 1040 ------- 0 3.0 13.0 6 37
+ 1.477504 8 9 tcp 1040 ------- 0 3.0 13.0 6 37
r 1.486112 5 6 tcp 1040 ------- 0 0.0 10.0 1 30
+ 1.486112 6 7 tcp 1040 ------- 0 0.0 10.0 1 30
- 1.486112 6 7 tcp 1040 ------- 0 0.0 10.0 1 30
r 1.49184 15 9 ack 40 ------- 0 14.0 4.0 4 27
+ 1.49184 9 4 ack 40 ------- 0 14.0 4.0 4 27
- 1.49184 9 4 ack 40 ------- 0 14.0 4.0 4 27
- 1.49248 8 9 tcp 1040 ------- 0 3.0 13.0 5 36
r 1.495264 9 4 ack 40 ------- 0 14.0 4.0 3 26
+ 1.495264 4 9 tcp 1040 ------- 0 4.0 14.0 7 38
- 1.495264 4 9 tcp 1040 ------- 0 4.0 14.0 7 38
+ 1.495264 4 9 tcp 1040 ------- 0 4.0 14.0 8 39
- 1.496928 4 9 tcp 1040 ------- 0 4.0 14.0 8 39
r 1.502752 5 6 tcp 1040 ------- 0 0.0 10.0 2 31
+ 1.502752 6 7 tcp 1040 ------- 0 0.0 10.0 2 31
- 1.502752 6 7 tcp 1040 ------- 0 0.0 10.0 2 31
r 1.50848 15 9 ack 40 ------- 0 14.0 4.0 5 28
+ 1.50848 9 4 ack 40 ------- 0 14.0 4.0 5 28
- 1.50848 9 4 ack 40 ------- 0 14.0 4.0 5 28
- 1.50912 8 9 tcp 1040 ------- 0 3.0 13.0 6 37
r 1.511904 9 4 ack 40 ------- 0 14.0 4.0 4 27
+ 1.511904 4 9 tcp 1040 ------- 0 4.0 14.0 9 40
- 1.511904 4 9 tcp 1040 ------- 0 4.0 14.0 9 40
+ 1.511904 4 9 tcp 1040 ------- 0 4.0 14.0 10 41
- 1.513568 4 9 tcp 1040 ------- 0 4.0 14.0 10 41
r 1.516928 4 9 tcp 1040 ------- 0 4.0 14.0 7 38
+ 1.516928 9 15 tcp 1040 ------- 0 4.0 14.0 7 38
- 1.516928 9 15 tcp 1040 ------- 0 4.0 14.0 7 38
r 1.518112 8 9 tcp 1040 ------- 0 1.0 11.0 1 24
+ 1.518112 9 15 tcp 1040 ------- 0 1.0 11.0 1 24
r 1.518592 4 9 tcp 1040 ------- 0 4.0 14.0 8 39
+ 1.518592 9 15 tcp 1040 ------- 0 4.0 14.0 8 39
r 1.52512 15 9 ack 40 ------- 0 14.0 4.0 6 29
+ 1.52512 9 4 ack 40 ------- 0 14.0 4.0 6 29
- 1.52512 9 4 ack 40 ------- 0 14.0 4.0 6 29
r 1.528544 9 4 ack 40 ------- 0 14.0 4.0 5 28
+ 1.528544 4 9 tcp 1040 ------- 0 4.0 14.0 11 42
- 1.528544 4 9 tcp 1040 ------- 0 4.0 14.0 11 42
+ 1.528544 4 9 tcp 1040 ------- 0 4.0 14.0 12 43
- 1.530208 4 9 tcp 1040 ------- 0 4.0 14.0 12 43
r 1.533568 4 9 tcp 1040 ------- 0 4.0 14.0 9 40
+ 1.533568 9 15 tcp 1040 ------- 0 4.0 14.0 9 40
- 1.533568 9 15 tcp 1040 ------- 0 1.0 11.0 1 24
r 1.534112 12 15 ack 40 ------- 0 12.0 2.0 1 32
+ 1.534112 15 9 ack 40 ------- 0 12.0 2.0 1 32
- 1.534112 15 9 ack 40 ------- 0 12.0 2.0 1 32
r 1.534752 8 9 tcp 1040 ------- 0 1.0 11.0 2 25
+ 1.534752 9 15 tcp 1040 ------- 0 1.0 11.0 2 25
r 1.535232 4 9 tcp 1040 ------- 0 4.0 14.0 10 41
+ 1.535232 9 15 tcp 1040 ------- 0 4.0 14.0 10 41
r 1.545184 9 4 ack 40 ------- 0 14.0 4.0 6 29
+ 1.545184 4 9 tcp 1040 ------- 0 4.0 14.0 13 44
- 1.545184 4 9 tcp 1040 ------- 0 4.0 14.0 13 44
+ 1.545184 4 9 tcp 1040 ------- 0 4.0 14.0 14 45
- 1.546848 4 9 tcp 1040 ------- 0 4.0 14.0 14 45
r 1.550208 4 9 tcp 1040 ------- 0 4.0 14.0 11 42
+ 1.550208 9 15 tcp 1040 ------- 0 4.0 14.0 11 42
- 1.550208 9 15 tcp 1040 ------- 0 4.0 14.0 8 39
r 1.550752 12 15 ack 40 ------- 0 12.0 2.0 2 35
+ 1.550752 15 9 ack 40 ------- 0 12.0 2.0 2 35
- 1.550752 15 9 ack 40 ------- 0 12.0 2.0 2 35
r 1.551872 4 9 tcp 1040 ------- 0 4.0 14.0 12 43
+ 1.551872 9 15 tcp 1040 ------- 0 4.0 14.0 12 43
r 1.566848 4 9 tcp 1040 ------- 0 4.0 14.0 13 44
+ 1.566848 9 15 tcp 1040 ------- 0 4.0 14.0 13 44
- 1.566848 9 15 tcp 1040 ------- 0 4.0 14.0 9 40
r 1.568512 4 9 tcp 1040 ------- 0 4.0 14.0 14 45
+ 1.568512 9 15 tcp 1040 ------- 0 4.0 14.0 14 45
r 1.57584 8 9 tcp 1040 ------- 0 3.0 13.0 3 33
+ 1.57584 9 15 tcp 1040 ------- 0 3.0 13.0 3 33
- 1.583488 9 15 tcp 1040 ------- 0 1.0 11.0 2 25
r 1.59248 8 9 tcp 1040 ------- 0 3.0 13.0 4 34
+ 1.59248 9 15 tcp 1040 ------- 0 3.0 13.0 4 34
- 1.600128 9 15 tcp 1040 ------- 0 4.0 14.0 10 41
r 1.602752 6 7 tcp 1040 ------- 0 0.0 10.0 1 30
+ 1.602752 7 8 tcp 1040 ------- 0 0.0 10.0 1 30
- 1.602752 7 8 tcp 1040 ------- 0 0.0 10.0 1 30
r 1.60912 8 9 tcp 1040 ------- 0 3.0 13.0 5 36
+ 1.60912 9 15 tcp 1040 ------- 0 3.0 13.0 5 36
- 1.616768 9 15 tcp 1040 ------- 0 4.0 14.0 11 42
r 1.619392 6 7 tcp 1040 ------- 0 0.0 10.0 2 31
+ 1.619392 7 8 tcp 1040 ------- 0 0.0 10.0 2 31
- 1.619392 7 8 tcp 1040 ------- 0 0.0 10.0 2 31
r 1.62576 8 9 tcp 1040 ------- 0 3.0 13.0 6 37
+ 1.62576 9 15 tcp 1040 ------- 0 3.0 13.0 6 37
- 1.633408 9 15 tcp 1040 ------- 0 4.0 14.0 12 43
r 1.633568 9 15 tcp 1040 ------- 0 4.0 14.0 7 38
+ 1.633568 15 14 tcp 1040 ------- 0 4.0 14.0 7 38
- 1.633568 15 14 tcp 1040 ------- 0 4.0 14.0 7 38
r 1.634752 15 9 ack 40 ------- 0 12.0 2.0 1 32
+ 1.634752 9 8 ack 40 ------- 0 12.0 2.0 1 32
- 1.634752 9 8 ack 40 ------- 0 12.0 2.0 1 32
- 1.650048 9 15 tcp 1040 ------- 0 4.0 14.0 13 44
r 1.650208 9 15 tcp 1040 ------- 0 1.0 11.0 1 24
+ 1.650208 15 11 tcp 1040 ------- 0 1.0 11.0 1 24
- 1.650208 15 11 tcp 1040 ------- 0 1.0 11.0 1 24
r 1.651392 15 9 ack 40 ------- 0 12.0 2.0 2 35
+ 1.651392 9 8 ack 40 ------- 0 12.0 2.0 2 35
- 1.651392 9 8 ack 40 ------- 0 12.0 2.0 2 35
- 1.666688 9 15 tcp 1040 ------- 0 4.0 14.0 14 45
r 1.666848 9 15 tcp 1040 ------- 0 4.0 14.0 8 39
+ 1.666848 15 14 tcp 1040 ------- 0 4.0 14.0 8 39
- 1.666848 15 14 tcp 1040 ------- 0 4.0 14.0 8 39
- 1.683328 9 15 tcp 1040 ------- 0 3.0 13.0 3 33
r 1.683488 9 15 tcp 1040 ------- 0 4.0 14.0 9 40
+ 1.683488 15 14 tcp 1040 ------- 0 4.0 14.0 9 40
- 1.683488 15 14 tcp 1040 ------- 0 4.0 14.0 9 40
- 1.699968 9 15 tcp 1040 ------- 0 3.0 13.0 4 34
r 1.700128 9 15 tcp 1040 ------- 0 1.0 11.0 2 25
+ 1.700128 15 11 tcp 1040 ------- 0 1.0 11.0 2 25
- 1.700128 15 11 tcp 1040 ------- 0 1.0 11.0 2 25
- 1.716608 9 15 tcp 1040 ------- 0 3.0 13.0 5 36
r 1.716768 9 15 tcp 1040 ------- 0 4.0 14.0 10 41
+ 1.716768 15 14 tcp 1040 ------- 0 4.0 14.0 10 41
- 1.716768 15 14 tcp 1040 ------- 0 4.0 14.0 10 41
r 1.719392 7 8 tcp 1040 ------- 0 0.0 10.0 1 30
+ 1.719392 8 9 tcp 1040 ------- 0 0.0 10.0 1 30
- 1.719392 8 9 tcp 1040 ------- 0 0.0 10.0 1 30
- 1.733248 9 15 tcp 1040 ------- 0 3.0 13.0 6 37
r 1.733408 9 15 tcp 1040 ------- 0 4.0 14.0 11 42
+ 1.733408 15 14 tcp 1040 ------- 0 4.0 14.0 11 42
- 1.733408 15 14 tcp 1040 ------- 0 4.0 14.0 11 42
r 1.735392 9 8 ack 40 ------- 0 12.0 2.0 1 32
+ 1.735392 8 7 ack 40 ------- 0 12.0 2.0 1 32
- 1.735392 8 7 ack 40 ------- 0 12.0 2.0 1 32
r 1.736032 7 8 tcp 1040 ------- 0 0.0 10.0 2 31
+ 1.736032 8 9 tcp 1040 ------- 0 0.0 10.0 2 31
- 1.736032 8 9 tcp 1040 ------- 0 0.0 10.0 2 31
r 1.750048 9 15 tcp 1040 ------- 0 4.0 14.0 12 43
+ 1.750048 15 14 tcp 1040 ------- 0 4.0 14.0 12 43
- 1.750048 15 14 tcp 1040 ------- 0 4.0 14.0 12 43
r 1.750208 15 14 tcp 1040 ------- 0 4.0 14.0 7 38
+ 1.750208 14 15 ack 40 ------- 0 14.0 4.0 7 46
- 1.750208 14 15 ack 40 ------- 0 14.0 4.0 7 46
r 1.752032 9 8 ack 40 ------- 0 12.0 2.0 2 35
+ 1.752032 8 7 ack 40 ------- 0 12.0 2.0 2 35
- 1.752032 8 7 ack 40 ------- 0 12.0 2.0 2 35
r 1.766688 9 15 tcp 1040 ------- 0 4.0 14.0 13 44
+ 1.766688 15 14 tcp 1040 ------- 0 4.0 14.0 13 44
- 1.766688 15 14 tcp 1040 ------- 0 4.0 14.0 13 44
r 1.766848 15 11 tcp 1040 ------- 0 1.0 11.0 1 24
+ 1.766848 11 15 ack 40 ------- 0 11.0 1.0 1 47
- 1.766848 11 15 ack 40 ------- 0 11.0 1.0 1 47
r 1.783328 9 15 tcp 1040 ------- 0 4.0 14.0 14 45
+ 1.783328 15 14 tcp 1040 ------- 0 4.0 14.0 14 45
- 1.783328 15 14 tcp 1040 ------- 0 4.0 14.0 14 45
r 1.783488 15 14 tcp 1040 ------- 0 4.0 14.0 8 39
+ 1.783488 14 15 ack 40 ------- 0 14.0 4.0 8 48
- 1.783488 14 15 ack 40 ------- 0 14.0 4.0 8 48
r 1.799968 9 15 tcp 1040 ------- 0 3.0 13.0 3 33
+ 1.799968 15 13 tcp 1040 ------- 0 3.0 13.0 3 33
- 1.799968 15 13 tcp 1040 ------- 0 3.0 13.0 3 33
r 1.800128 15 14 tcp 1040 ------- 0 4.0 14.0 9 40
+ 1.800128 14 15 ack 40 ------- 0 14.0 4.0 9 49
- 1.800128 14 15 ack 40 ------- 0 14.0 4.0 9 49
r 1.816608 9 15 tcp 1040 ------- 0 3.0 13.0 4 34
+ 1.816608 15 13 tcp 1040 ------- 0 3.0 13.0 4 34
- 1.816608 15 13 tcp 1040 ------- 0 3.0 13.0 4 34
r 1.816768 15 11 tcp 1040 ------- 0 1.0 11.0 2 25
+ 1.816768 11 15 ack 40 ------- 0 11.0 1.0 2 50
- 1.816768 11 15 ack 40 ------- 0 11.0 1.0 2 50
r 1.833248 9 15 tcp 1040 ------- 0 3.0 13.0 5 36
+ 1.833248 15 13 tcp 1040 ------- 0 3.0 13.0 5 36
- 1.833248 15 13 tcp 1040 ------- 0 3.0 13.0 5 36
r 1.833408 15 14 tcp 1040 ------- 0 4.0 14.0 10 41
+ 1.833408 14 15 ack 40 ------- 0 14.0 4.0 10 51
- 1.833408 14 15 ack 40 ------- 0 14.0 4.0 10 51
r 1.836032 8 9 tcp 1040 ------- 0 0.0 10.0 1 30
+ 1.836032 9 15 tcp 1040 ------- 0 0.0 10.0 1 30
- 1.836032 9 15 tcp 1040 ------- 0 0.0 10.0 1 30
r 1.836032 8 7 ack 40 ------- 0 12.0 2.0 1 32
+ 1.836032 7 2 ack 40 ------- 0 12.0 2.0 1 32
- 1.836032 7 2 ack 40 ------- 0 12.0 2.0 1 32
r 1.849888 9 15 tcp 1040 ------- 0 3.0 13.0 6 37
+ 1.849888 15 13 tcp 1040 ------- 0 3.0 13.0 6 37
- 1.849888 15 13 tcp 1040 ------- 0 3.0 13.0 6 37
r 1.850048 15 14 tcp 1040 ------- 0 4.0 14.0 11 42
+ 1.850048 14 15 ack 40 ------- 0 14.0 4.0 11 52
- 1.850048 14 15 ack 40 ------- 0 14.0 4.0 11 52
r 1.850848 14 15 ack 40 ------- 0 14.0 4.0 7 46
+ 1.850848 15 9 ack 40 ------- 0 14.0 4.0 7 46
- 1.850848 15 9 ack 40 ------- 0 14.0 4.0 7 46
r 1.852672 8 9 tcp 1040 ------- 0 0.0 10.0 2 31
+ 1.852672 9 15 tcp 1040 ------- 0 0.0 10.0 2 31
r 1.852672 8 7 ack 40 ------- 0 12.0 2.0 2 35
+ 1.852672 7 2 ack 40 ------- 0 12.0 2.0 2 35
- 1.852672 7 2 ack 40 ------- 0 12.0 2.0 2 35
- 1.852672 9 15 tcp 1040 ------- 0 0.0 10.0 2 31
r 1.856096 7 2 ack 40 ------- 0 12.0 2.0 1 32
+ 1.856096 2 7 tcp 1040 ------- 0 2.0 12.0 3 53
- 1.856096 2 7 tcp 1040 ------- 0 2.0 12.0 3 53
+ 1.856096 2 7 tcp 1040 ------- 0 2.0 12.0 4 54
- 1.85776 2 7 tcp 1040 ------- 0 2.0 12.0 4 54
r 1.866688 15 14 tcp 1040 ------- 0 4.0 14.0 12 43
+ 1.866688 14 15 ack 40 ------- 0 14.0 4.0 12 55
- 1.866688 14 15 ack 40 ------- 0 14.0 4.0 12 55
r 1.867488 11 15 ack 40 ------- 0 11.0 1.0 1 47
+ 1.867488 15 9 ack 40 ------- 0 11.0 1.0 1 47
- 1.867488 15 9 ack 40 ------- 0 11.0 1.0 1 47
r 1.872736 7 2 ack 40 ------- 0 12.0 2.0 2 35
+ 1.872736 2 7 tcp 1040 ------- 0 2.0 12.0 5 56
- 1.872736 2 7 tcp 1040 ------- 0 2.0 12.0 5 56
+ 1.872736 2 7 tcp 1040 ------- 0 2.0 12.0 6 57
- 1.8744 2 7 tcp 1040 ------- 0 2.0 12.0 6 57
r 1.87776 2 7 tcp 1040 ------- 0 2.0 12.0 3 53
+ 1.87776 7 8 tcp 1040 ------- 0 2.0 12.0 3 53
- 1.87776 7 8 tcp 1040 ------- 0 2.0 12.0 3 53
r 1.879424 2 7 tcp 1040 ------- 0 2.0 12.0 4 54
+ 1.879424 7 8 tcp 1040 ------- 0 2.0 12.0 4 54
r 1.883328 15 14 tcp 1040 ------- 0 4.0 14.0 13 44
+ 1.883328 14 15 ack 40 ------- 0 14.0 4.0 13 58
- 1.883328 14 15 ack 40 ------- 0 14.0 4.0 13 58
r 1.884128 14 15 ack 40 ------- 0 14.0 4.0 8 48
+ 1.884128 15 9 ack 40 ------- 0 14.0 4.0 8 48
- 1.884128 15 9 ack 40 ------- 0 14.0 4.0 8 48
r 1.8944 2 7 tcp 1040 ------- 0 2.0 12.0 5 56
+ 1.8944 7 8 tcp 1040 ------- 0 2.0 12.0 5 56
- 1.8944 7 8 tcp 1040 ------- 0 2.0 12.0 4 54
r 1.896064 2 7 tcp 1040 ------- 0 2.0 12.0 6 57
+ 1.896064 7 8 tcp 1040 ------- 0 2.0 12.0 6 57
r 1.899968 15 14 tcp 1040 ------- 0 4.0 14.0 14 45
+ 1.899968 14 15 ack 40 ------- 0 14.0 4.0 14 59
- 1.899968 14 15 ack 40 ------- 0 14.0 4.0 14 59
r 1.900768 14 15 ack 40 ------- 0 14.0 4.0 9 49
+ 1.900768 15 9 ack 40 ------- 0 14.0 4.0 9 49
- 1.900768 15 9 ack 40 ------- 0 14.0 4.0 9 49
- 1.91104 7 8 tcp 1040 ------- 0 2.0 12.0 5 56
r 1.916608 15 13 tcp 1040 ------- 0 3.0 13.0 3 33
+ 1.916608 13 15 ack 40 ------- 0 13.0 3.0 3 60
- 1.916608 13 15 ack 40 ------- 0 13.0 3.0 3 60
r 1.917408 11 15 ack 40 ------- 0 11.0 1.0 2 50
+ 1.917408 15 9 ack 40 ------- 0 11.0 1.0 2 50
- 1.917408 15 9 ack 40 ------- 0 11.0 1.0 2 50
- 1.92768 7 8 tcp 1040 ------- 0 2.0 12.0 6 57
r 1.933248 15 13 tcp 1040 ------- 0 3.0 13.0 4 34
+ 1.933248 13 15 ack 40 ------- 0 13.0 3.0 4 61
- 1.933248 13 15 ack 40 ------- 0 13.0 3.0 4 61
r 1.934048 14 15 ack 40 ------- 0 14.0 4.0 10 51
+ 1.934048 15 9 ack 40 ------- 0 14.0 4.0 10 51
- 1.934048 15 9 ack 40 ------- 0 14.0 4.0 10 51
r 1.949888 15 13 tcp 1040 ------- 0 3.0 13.0 5 36
+ 1.949888 13 15 ack 40 ------- 0 13.0 3.0 5 62
- 1.949888 13 15 ack 40 ------- 0 13.0 3.0 5 62
r 1.950688 14 15 ack 40 ------- 0 14.0 4.0 11 52
+ 1.950688 15 9 ack 40 ------- 0 14.0 4.0 11 52
- 1.950688 15 9 ack 40 ------- 0 14.0 4.0 11 52
r 1.951488 15 9 ack 40 ------- 0 14.0 4.0 7 46
+ 1.951488 9 4 ack 40 ------- 0 14.0 4.0 7 46
- 1.951488 9 4 ack 40 ------- 0 14.0 4.0 7 46
r 1.952672 9 15 tcp 1040 ------- 0 0.0 10.0 1 30
+ 1.952672 15 10 tcp 1040 ------- 0 0.0 10.0 1 30
- 1.952672 15 10 tcp 1040 ------- 0 0.0 10.0 1 30
r 1.966528 15 13 tcp 1040 ------- 0 3.0 13.0 6 37
+ 1.966528 13 15 ack 40 ------- 0 13.0 3.0 6 63
- 1.966528 13 15 ack 40 ------- 0 13.0 3.0 6 63
r 1.967328 14 15 ack 40 ------- 0 14.0 4.0 12 55