+ 0.1 0 1 tcp 40 ------- 0 0.0 3.0 0 0
- 0.1 0 1 tcp 40 ------- 0 0.0 3.0 0 0
r 0.110013 0 1 tcp 40 ------- 0 0.0 3.0 0 0
+ 0.110013 1 2 tcp 40 ------- 0 0.0 3.0 0 0
- 0.110013 1 2 tcp 40 ------- 0 0.0 3.0 0 0
r 0.160141 1 2 tcp 40 ------- 0 0.0 3.0 0 0
+ 0.160141 2 3 tcp 40 ------- 0 0.0 3.0 0 0
- 0.160141 2 3 tcp 40 ------- 0 0.0 3.0 0 0
r 0.170154 2 3 tcp 40 ------- 0 0.0 3.0 0 0
+ 0.170154 3 2 ack 40 ------- 0 3.0 0.0 0 1
- 0.170154 3 2 ack 40 ------- 0 3.0 0.0 0 1
r 0.180166 3 2 ack 40 ------- 0 3.0 0.0 0 1
+ 0.180166 2 1 ack 40 ------- 0 3.0 0.0 0 1
- 0.180166 2 1 ack 40 ------- 0 3.0 0.0 0 1
r 0.230294 2 1 ack 40 ------- 0 3.0 0.0 0 1
+ 0.230294 1 0 ack 40 ------- 0 3.0 0.0 0 1
- 0.230294 1 0 ack 40 ------- 0 3.0 0.0 0 1
r 0.240307 1 0 ack 40 ------- 0 3.0 0.0 0 1
+ 0.240307 0 1 tcp 1040 ------- 0 0.0 3.0 1 2
- 0.240307 0 1 tcp 1040 ------- 0 0.0 3.0 1 2
+ 0.240307 0 1 tcp 1040 ------- 0 0.0 3.0 2 3
- 0.24064 0 1 tcp 1040 ------- 0 0.0 3.0 2 3
r 0.25064 0 1 tcp 1040 ------- 0 0.0 3.0 1 2
+ 0.25064 1 2 tcp 1040 ------- 0 0.0 3.0 1 2
- 0.25064 1 2 tcp 1040 ------- 0 0.0 3.0 1 2
r 0.250973 0 1 tcp 1040 ------- 0 0.0 3.0 2 3
+ 0.250973 1 2 tcp 1040 ------- 0 0.0 3.0 2 3
- 0.253968 1 2 tcp 1040 ------- 0 0.0 3.0 2 3
r 0.303968 1 2 tcp 1040 ------- 0 0.0 3.0 1 2
+ 0.303968 2 3 tcp 1040 ------- 0 0.0 3.0 1 2
- 0.303968 2 3 tcp 1040 ------- 0 0.0 3.0 1 2
r 0.307296 1 2 tcp 1040 ------- 0 0.0 3.0 2 3
+ 0.307296 2 3 tcp 1040 ------- 0 0.0 3.0 2 3
- 0.307296 2 3 tcp 1040 ------- 0 0.0 3.0 2 3
r 0.314301 2 3 tcp 1040 ------- 0 0.0 3.0 1 2
+ 0.314301 3 2 ack 40 ------- 0 3.0 0.0 1 4
- 0.314301 3 2 ack 40 ------- 0 3.0 0.0 1 4
r 0.317629 2 3 tcp 1040 ------- 0 0.0 3.0 2 3
+ 0.317629 3 2 ack 40 ------- 0 3.0 0.0 2 5
- 0.317629 3 2 ack 40 ------- 0 3.0 0.0 2 5
r 0.324314 3 2 ack 40 ------- 0 3.0 0.0 1 4
+ 0.324314 2 1 ack 40 ------- 0 3.0 0.0 1 4
- 0.324314 2 1 ack 40 ------- 0 3.0 0.0 1 4
r 0.327642 3 2 ack 40 ------- 0 3.0 0.0 2 5
+ 0.327642 2 1 ack 40 ------- 0 3.0 0.0 2 5
- 0.327642 2 1 ack 40 ------- 0 3.0 0.0 2 5
r 0.374442 2 1 ack 40 ------- 0 3.0 0.0 1 4
+ 0.374442 1 0 ack 40 ------- 0 3.0 0.0 1 4
- 0.374442 1 0 ack 40 ------- 0 3.0 0.0 1 4
r 0.37777 2 1 ack 40 ------- 0 3.0 0.0 2 5
+ 0.37777 1 0 ack 40 ------- 0 3.0 0.0 2 5
- 0.37777 1 0 ack 40 ------- 0 3.0 0.0 2 5
r 0.384454 1 0 ack 40 ------- 0 3.0 0.0 1 4
+ 0.384454 0 1 tcp 1040 ------- 0 0.0 3.0 3 6
- 0.384454 0 1 tcp 1040 ------- 0 0.0 3.0 3 6
+ 0.384454 0 1 tcp 1040 ------- 0 0.0 3.0 4 7
- 0.384787 0 1 tcp 1040 ------- 0 0.0 3.0 4 7
r 0.387782 1 0 ack 40 ------- 0 3.0 0.0 2 5
+ 0.387782 0 1 tcp 1040 ------- 0 0.0 3.0 5 8
- 0.387782 0 1 tcp 1040 ------- 0 0.0 3.0 5 8
+ 0.387782 0 1 tcp 1040 ------- 0 0.0 3.0 6 9
- 0.388115 0 1 tcp 1040 ------- 0 0.0 3.0 6 9
r 0.394787 0 1 tcp 1040 ------- 0 0.0 3.0 3 6
+ 0.394787 1 2 tcp 1040 ------- 0 0.0 3.0 3 6
- 0.394787 1 2 tcp 1040 ------- 0 0.0 3.0 3 6
r 0.39512 0 1 tcp 1040 ------- 0 0.0 3.0 4 7
+ 0.39512 1 2 tcp 1040 ------- 0 0.0 3.0 4 7
r 0.398115 0 1 tcp 1040 ------- 0 0.0 3.0 5 8
+ 0.398115 1 2 tcp 1040 ------- 0 0.0 3.0 5 8
- 0.398115 1 2 tcp 1040 ------- 0 0.0 3.0 4 7
r 0.398448 0 1 tcp 1040 ------- 0 0.0 3.0 6 9
+ 0.398448 1 2 tcp 1040 ------- 0 0.0 3.0 6 9
- 0.401443 1 2 tcp 1040 ------- 0 0.0 3.0 5 8
- 0.404771 1 2 tcp 1040 ------- 0 0.0 3.0 6 9
r 0.448115 1 2 tcp 1040 ------- 0 0.0 3.0 3 6
+ 0.448115 2 3 tcp 1040 ------- 0 0.0 3.0 3 6
- 0.448115 2 3 tcp 1040 ------- 0 0.0 3.0 3 6
r 0.451443 1 2 tcp 1040 ------- 0 0.0 3.0 4 7
+ 0.451443 2 3 tcp 1040 ------- 0 0.0 3.0 4 7
- 0.451443 2 3 tcp 1040 ------- 0 0.0 3.0 4 7
r 0.454771 1 2 tcp 1040 ------- 0 0.0 3.0 5 8
+ 0.454771 2 3 tcp 1040 ------- 0 0.0 3.0 5 8
- 0.454771 2 3 tcp 1040 ------- 0 0.0 3.0 5 8
r 0.458099 1 2 tcp 1040 ------- 0 0.0 3.0 6 9
+ 0.458099 2 3 tcp 1040 ------- 0 0.0 3.0 6 9
- 0.458099 2 3 tcp 1040 ------- 0 0.0 3.0 6 9
r 0.458448 2 3 tcp 1040 ------- 0 0.0 3.0 3 6
+ 0.458448 3 2 ack 40 ------- 0 3.0 0.0 3 10
- 0.458448 3 2 ack 40 ------- 0 3.0 0.0 3 10
r 0.461776 2 3 tcp 1040 ------- 0 0.0 3.0 4 7
+ 0.461776 3 2 ack 40 ------- 0 3.0 0.0 4 11
- 0.461776 3 2 ack 40 ------- 0 3.0 0.0 4 11
r 0.465104 2 3 tcp 1040 ------- 0 0.0 3.0 5 8
+ 0.465104 3 2 ack 40 ------- 0 3.0 0.0 5 12
- 0.465104 3 2 ack 40 ------- 0 3.0 0.0 5 12
r 0.468432 2 3 tcp 1040 ------- 0 0.0 3.0 6 9
+ 0.468432 3 2 ack 40 ------- 0 3.0 0.0 6 13
- 0.468432 3 2 ack 40 ------- 0 3.0 0.0 6 13
r 0.468461 3 2 ack 40 ------- 0 3.0 0.0 3 10
+ 0.468461 2 1 ack 40 ------- 0 3.0 0.0 3 10
- 0.468461 2 1 ack 40 ------- 0 3.0 0.0 3 10
r 0.471789 3 2 ack 40 ------- 0 3.0 0.0 4 11
+ 0.471789 2 1 ack 40 ------- 0 3.0 0.0 4 11
- 0.471789 2 1 ack 40 ------- 0 3.0 0.0 4 11
r 0.475117 3 2 ack 40 ------- 0 3.0 0.0 5 12
+ 0.475117 2 1 ack 40 ------- 0 3.0 0.0 5 12
- 0.475117 2 1 ack 40 ------- 0 3.0 0.0 5 12
r 0.478445 3 2 ack 40 ------- 0 3.0 0.0 6 13
+ 0.478445 2 1 ack 40 ------- 0 3.0 0.0 6 13
- 0.478445 2 1 ack 40 ------- 0 3.0 0.0 6 13
r 0.518589 2 1 ack 40 ------- 0 3.0 0.0 3 10
+ 0.518589 1 0 ack 40 ------- 0 3.0 0.0 3 10
- 0.518589 1 0 ack 40 ------- 0 3.0 0.0 3 10
r 0.521917 2 1 ack 40 ------- 0 3.0 0.0 4 11
+ 0.521917 1 0 ack 40 ------- 0 3.0 0.0 4 11
- 0.521917 1 0 ack 40 ------- 0 3.0 0.0 4 11
r 0.525245 2 1 ack 40 ------- 0 3.0 0.0 5 12
+ 0.525245 1 0 ack 40 ------- 0 3.0 0.0 5 12
- 0.525245 1 0 ack 40 ------- 0 3.0 0.0 5 12
r 0.528573 2 1 ack 40 ------- 0 3.0 0.0 6 13
+ 0.528573 1 0 ack 40 ------- 0 3.0 0.0 6 13
- 0.528573 1 0 ack 40 ------- 0 3.0 0.0 6 13
r 0.528602 1 0 ack 40 ------- 0 3.0 0.0 3 10
+ 0.528602 0 1 tcp 1040 ------- 0 0.0 3.0 7 14
- 0.528602 0 1 tcp 1040 ------- 0 0.0 3.0 7 14
+ 0.528602 0 1 tcp 1040 ------- 0 0.0 3.0 8 15
- 0.528934 0 1 tcp 1040 ------- 0 0.0 3.0 8 15
r 0.53193 1 0 ack 40 ------- 0 3.0 0.0 4 11
+ 0.53193 0 1 tcp 1040 ------- 0 0.0 3.0 9 16
- 0.53193 0 1 tcp 1040 ------- 0 0.0 3.0 9 16
+ 0.53193 0 1 tcp 1040 ------- 0 0.0 3.0 10 17
- 0.532262 0 1 tcp 1040 ------- 0 0.0 3.0 10 17
r 0.535258 1 0 ack 40 ------- 0 3.0 0.0 5 12
+ 0.535258 0 1 tcp 1040 ------- 0 0.0 3.0 11 18
- 0.535258 0 1 tcp 1040 ------- 0 0.0 3.0 11 18
+ 0.535258 0 1 tcp 1040 ------- 0 0.0 3.0 12 19
- 0.53559 0 1 tcp 1040 ------- 0 0.0 3.0 12 19
r 0.538586 1 0 ack 40 ------- 0 3.0 0.0 6 13
+ 0.538586 0 1 tcp 1040 ------- 0 0.0 3.0 13 20
- 0.538586 0 1 tcp 1040 ------- 0 0.0 3.0 13 20
+ 0.538586 0 1 tcp 1040 ------- 0 0.0 3.0 14 21
- 0.538918 0 1 tcp 1040 ------- 0 0.0 3.0 14 21
r 0.538934 0 1 tcp 1040 ------- 0 0.0 3.0 7 14
+ 0.538934 1 2 tcp 1040 ------- 0 0.0 3.0 7 14
- 0.538934 1 2 tcp 1040 ------- 0 0.0 3.0 7 14
r 0.539267 0 1 tcp 1040 ------- 0 0.0 3.0 8 15
+ 0.539267 1 2 tcp 1040 ------- 0 0.0 3.0 8 15
r 0.542262 0 1 tcp 1040 ------- 0 0.0 3.0 9 16
+ 0.542262 1 2 tcp 1040 ------- 0 0.0 3.0 9 16
- 0.542262 1 2 tcp 1040 ------- 0 0.0 3.0 8 15
r 0.542595 0 1 tcp 1040 ------- 0 0.0 3.0 10 17
+ 0.542595 1 2 tcp 1040 ------- 0 0.0 3.0 10 17
r 0.54559 0 1 tcp 1040 ------- 0 0.0 3.0 11 18
+ 0.54559 1 2 tcp 1040 ------- 0 0.0 3.0 11 18
- 0.54559 1 2 tcp 1040 ------- 0 0.0 3.0 9 16
r 0.545923 0 1 tcp 1040 ------- 0 0.0 3.0 12 19
+ 0.545923 1 2 tcp 1040 ------- 0 0.0 3.0 12 19
r 0.548918 0 1 tcp 1040 ------- 0 0.0 3.0 13 20
+ 0.548918 1 2 tcp 1040 ------- 0 0.0 3.0 13 20
- 0.548918 1 2 tcp 1040 ------- 0 0.0 3.0 10 17
r 0.549251 0 1 tcp 1040 ------- 0 0.0 3.0 14 21
+ 0.549251 1 2 tcp 1040 ------- 0 0.0 3.0 14 21
- 0.552246 1 2 tcp 1040 ------- 0 0.0 3.0 11 18
- 0.555574 1 2 tcp 1040 ------- 0 0.0 3.0 12 19
- 0.558902 1 2 tcp 1040 ------- 0 0.0 3.0 13 20
- 0.56223 1 2 tcp 1040 ------- 0 0.0 3.0 14 21
r 0.592262 1 2 tcp 1040 ------- 0 0.0 3.0 7 14
+ 0.592262 2 3 tcp 1040 ------- 0 0.0 3.0 7 14
- 0.592262 2 3 tcp 1040 ------- 0 0.0 3.0 7 14
r 0.59559 1 2 tcp 1040 ------- 0 0.0 3.0 8 15
+ 0.59559 2 3 tcp 1040 ------- 0 0.0 3.0 8 15
- 0.59559 2 3 tcp 1040 ------- 0 0.0 3.0 8 15
r 0.598918 1 2 tcp 1040 ------- 0 0.0 3.0 9 16
+ 0.598918 2 3 tcp 1040 ------- 0 0.0 3.0 9 16
- 0.598918 2 3 tcp 1040 ------- 0 0.0 3.0 9 16
r 0.602246 1 2 tcp 1040 ------- 0 0.0 3.0 10 17
+ 0.602246 2 3 tcp 1040 ------- 0 0.0 3.0 10 17
- 0.602246 2 3 tcp 1040 ------- 0 0.0 3.0 10 17
r 0.602595 2 3 tcp 1040 ------- 0 0.0 3.0 7 14
+ 0.602595 3 2 ack 40 ------- 0 3.0 0.0 7 22
- 0.602595 3 2 ack 40 ------- 0 3.0 0.0 7 22
r 0.605574 1 2 tcp 1040 ------- 0 0.0 3.0 11 18
+ 0.605574 2 3 tcp 1040 ------- 0 0.0 3.0 11 18
- 0.605574 2 3 tcp 1040 ------- 0 0.0 3.0 11 18
r 0.605923 2 3 tcp 1040 ------- 0 0.0 3.0 8 15
+ 0.605923 3 2 ack 40 ------- 0 3.0 0.0 8 23
- 0.605923 3 2 ack 40 ------- 0 3.0 0.0 8 23
r 0.608902 1 2 tcp 1040 ------- 0 0.0 3.0 12 19
+ 0.608902 2 3 tcp 1040 ------- 0 0.0 3.0 12 19
- 0.608902 2 3 tcp 1040 ------- 0 0.0 3.0 12 19
r 0.609251 2 3 tcp 1040 ------- 0 0.0 3.0 9 16
+ 0.609251 3 2 ack 40 ------- 0 3.0 0.0 9 24
- 0.609251 3 2 ack 40 ------- 0 3.0 0.0 9 24
r 0.61223 1 2 tcp 1040 ------- 0 0.0 3.0 13 20
+ 0.61223 2 3 tcp 1040 ------- 0 0.0 3.0 13 20
- 0.61223 2 3 tcp 1040 ------- 0 0.0 3.0 13 20
r 0.612579 2 3 tcp 1040 ------- 0 0.0 3.0 10 17
+ 0.612579 3 2 ack 40 ------- 0 3.0 0.0 10 25
- 0.612579 3 2 ack 40 ------- 0 3.0 0.0 10 25
r 0.612608 3 2 ack 40 ------- 0 3.0 0.0 7 22
+ 0.612608 2 1 ack 40 ------- 0 3.0 0.0 7 22
- 0.612608 2 1 ack 40 ------- 0 3.0 0.0 7 22
r 0.615558 1 2 tcp 1040 ------- 0 0.0 3.0 14 21
+ 0.615558 2 3 tcp 1040 ------- 0 0.0 3.0 14 21
- 0.615558 2 3 tcp 1040 ------- 0 0.0 3.0 14 21
r 0.615907 2 3 tcp 1040 ------- 0 0.0 3.0 11 18
+ 0.615907 3 2 ack 40 ------- 0 3.0 0.0 11 26
- 0.615907 3 2 ack 40 ------- 0 3.0 0.0 11 26
r 0.615936 3 2 ack 40 ------- 0 3.0 0.0 8 23
+ 0.615936 2 1 ack 40 ------- 0 3.0 0.0 8 23
- 0.615936 2 1 ack 40 ------- 0 3.0 0.0 8 23
r 0.619235 2 3 tcp 1040 ------- 0 0.0 3.0 12 19
+ 0.619235 3 2 ack 40 ------- 0 3.0 0.0 12 27
- 0.619235 3 2 ack 40 ------- 0 3.0 0.0 12 27
r 0.619264 3 2 ack 40 ------- 0 3.0 0.0 9 24
+ 0.619264 2 1 ack 40 ------- 0 3.0 0.0 9 24
- 0.619264 2 1 ack 40 ------- 0 3.0 0.0 9 24
r 0.622563 2 3 tcp 1040 ------- 0 0.0 3.0 13 20
+ 0.622563 3 2 ack 40 ------- 0 3.0 0.0 13 28
- 0.622563 3 2 ack 40 ------- 0 3.0 0.0 13 28
r 0.622592 3 2 ack 40 ------- 0 3.0 0.0 10 25
+ 0.622592 2 1 ack 40 ------- 0 3.0 0.0 10 25
- 0.622592 2 1 ack 40 ------- 0 3.0 0.0 10 25
r 0.625891 2 3 tcp 1040 ------- 0 0.0 3.0 14 21
+ 0.625891 3 2 ack 40 ------- 0 3.0 0.0 14 29
- 0.625891 3 2 ack 40 ------- 0 3.0 0.0 14 29
r 0.62592 3 2 ack 40 ------- 0 3.0 0.0 11 26
+ 0.62592 2 1 ack 40 ------- 0 3.0 0.0 11 26
- 0.62592 2 1 ack 40 ------- 0 3.0 0.0 11 26
r 0.629248 3 2 ack 40 ------- 0 3.0 0.0 12 27
+ 0.629248 2 1 ack 40 ------- 0 3.0 0.0 12 27
- 0.629248 2 1 ack 40 ------- 0 3.0 0.0 12 27
r 0.632576 3 2 ack 40 ------- 0 3.0 0.0 13 28
+ 0.632576 2 1 ack 40 ------- 0 3.0 0.0 13 28
- 0.632576 2 1 ack 40 ------- 0 3.0 0.0 13 28
r 0.635904 3 2 ack 40 ------- 0 3.0 0.0 14 29
+ 0.635904 2 1 ack 40 ------- 0 3.0 0.0 14 29
- 0.635904 2 1 ack 40 ------- 0 3.0 0.0 14 29
r 0.662736 2 1 ack 40 ------- 0 3.0 0.0 7 22
+ 0.662736 1 0 ack 40 ------- 0 3.0 0.0 7 22
- 0.662736 1 0 ack 40 ------- 0 3.0 0.0 7 22
r 0.666064 2 1 ack 40 ------- 0 3.0 0.0 8 23
+ 0.666064 1 0 ack 40 ------- 0 3.0 0.0 8 23
- 0.666064 1 0 ack 40 ------- 0 3.0 0.0 8 23
r 0.669392 2 1 ack 40 ------- 0 3.0 0.0 9 24
+ 0.669392 1 0 ack 40 ------- 0 3.0 0.0 9 24
- 0.669392 1 0 ack 40 ------- 0 3.0 0.0 9 24
r 0.67272 2 1 ack 40 ------- 0 3.0 0.0 10 25
+ 0.67272 1 0 ack 40 ------- 0 3.0 0.0 10 25
- 0.67272 1 0 ack 40 ------- 0 3.0 0.0 10 25
r 0.672749 1 0 ack 40 ------- 0 3.0 0.0 7 22
+ 0.672749 0 1 tcp 1040 ------- 0 0.0 3.0 15 30
- 0.672749 0 1 tcp 1040 ------- 0 0.0 3.0 15 30
+ 0.672749 0 1 tcp 1040 ------- 0 0.0 3.0 16 31
- 0.673082 0 1 tcp 1040 ------- 0 0.0 3.0 16 31
r 0.676048 2 1 ack 40 ------- 0 3.0 0.0 11 26
+ 0.676048 1 0 ack 40 ------- 0 3.0 0.0 11 26
- 0.676048 1 0 ack 40 ------- 0 3.0 0.0 11 26
r 0.676077 1 0 ack 40 ------- 0 3.0 0.0 8 23
+ 0.676077 0 1 tcp 1040 ------- 0 0.0 3.0 17 32
- 0.676077 0 1 tcp 1040 ------- 0 0.0 3.0 17 32
+ 0.676077 0 1 tcp 1040 ------- 0 0.0 3.0 18 33
- 0.67641 0 1 tcp 1040 ------- 0 0.0 3.0 18 33
r 0.679376 2 1 ack 40 ------- 0 3.0 0.0 12 27
+ 0.679376 1 0 ack 40 ------- 0 3.0 0.0 12 27
- 0.679376 1 0 ack 40 ------- 0 3.0 0.0 12 27
r 0.679405 1 0 ack 40 ------- 0 3.0 0.0 9 24
+ 0.679405 0 1 tcp 1040 ------- 0 0.0 3.0 19 34
- 0.679405 0 1 tcp 1040 ------- 0 0.0 3.0 19 34
+ 0.679405 0 1 tcp 1040 ------- 0 0.0 3.0 20 35
- 0.679738 0 1 tcp 1040 ------- 0 0.0 3.0 20 35
r 0.682704 2 1 ack 40 ------- 0 3.0 0.0 13 28
+ 0.682704 1 0 ack 40 ------- 0 3.0 0.0 13 28
- 0.682704 1 0 ack 40 ------- 0 3.0 0.0 13 28
r 0.682733 1 0 ack 40 ------- 0 3.0 0.0 10 25
+ 0.682733 0 1 tcp 1040 ------- 0 0.0 3.0 21 36
- 0.682733 0 1 tcp 1040 ------- 0 0.0 3.0 21 36
+ 0.682733 0 1 tcp 1040 ------- 0 0.0 3.0 22 37
- 0.683066 0 1 tcp 1040 ------- 0 0.0 3.0 22 37
r 0.683082 0 1 tcp 1040 ------- 0 0.0 3.0 15 30
+ 0.683082 1 2 tcp 1040 ------- 0 0.0 3.0 15 30
- 0.683082 1 2 tcp 1040 ------- 0 0.0 3.0 15 30
r 0.683414 0 1 tcp 1040 ------- 0 0.0 3.0 16 31
+ 0.683414 1 2 tcp 1040 ------- 0 0.0 3.0 16 31
r 0.686032 2 1 ack 40 ------- 0 3.0 0.0 14 29
+ 0.686032 1 0 ack 40 ------- 0 3.0 0.0 14 29
- 0.686032 1 0 ack 40 ------- 0 3.0 0.0 14 29
r 0.686061 1 0 ack 40 ------- 0 3.0 0.0 11 26
+ 0.686061 0 1 tcp 1040 ------- 0 0.0 3.0 23 38
- 0.686061 0 1 tcp 1040 ------- 0 0.0 3.0 23 38
+ 0.686061 0 1 tcp 1040 ------- 0 0.0 3.0 24 39
- 0.686394 0 1 tcp 1040 ------- 0 0.0 3.0 24 39
r 0.68641 0 1 tcp 1040 ------- 0 0.0 3.0 17 32
+ 0.68641 1 2 tcp 1040 ------- 0 0.0 3.0 17 32
- 0.68641 1 2 tcp 1040 ------- 0 0.0 3.0 16 31
r 0.686742 0 1 tcp 1040 ------- 0 0.0 3.0 18 33
+ 0.686742 1 2 tcp 1040 ------- 0 0.0 3.0 18 33
r 0.689389 1 0 ack 40 ------- 0 3.0 0.0 12 27
+ 0.689389 0 1 tcp 1040 ------- 0 0.0 3.0 25 40
- 0.689389 0 1 tcp 1040 ------- 0 0.0 3.0 25 40
+ 0.689389 0 1 tcp 1040 ------- 0 0.0 3.0 26 41
- 0.689722 0 1 tcp 1040 ------- 0 0.0 3.0 26 41
r 0.689738 0 1 tcp 1040 ------- 0 0.0 3.0 19 34
+ 0.689738 1 2 tcp 1040 ------- 0 0.0 3.0 19 34
- 0.689738 1 2 tcp 1040 ------- 0 0.0 3.0 17 32
r 0.69007 0 1 tcp 1040 ------- 0 0.0 3.0 20 35
+ 0.69007 1 2 tcp 1040 ------- 0 0.0 3.0 20 35
r 0.692717 1 0 ack 40 ------- 0 3.0 0.0 13 28
+ 0.692717 0 1 tcp 1040 ------- 0 0.0 3.0 27 42
- 0.692717 0 1 tcp 1040 ------- 0 0.0 3.0 27 42
+ 0.692717 0 1 tcp 1040 ------- 0 0.0 3.0 28 43
- 0.69305 0 1 tcp 1040 ------- 0 0.0 3.0 28 43
r 0.693066 0 1 tcp 1040 ------- 0 0.0 3.0 21 36
+ 0.693066 1 2 tcp 1040 ------- 0 0.0 3.0 21 36
- 0.693066 1 2 tcp 1040 ------- 0 0.0 3.0 18 33
r 0.693398 0 1 tcp 1040 ------- 0 0.0 3.0 22 37
+ 0.693398 1 2 tcp 1040 ------- 0 0.0 3.0 22 37
r 0.696045 1 0 ack 40 ------- 0 3.0 0.0 14 29
+ 0.696045 0 1 tcp 1040 ------- 0 0.0 3.0 29 44
- 0.696045 0 1 tcp 1040 ------- 0 0.0 3.0 29 44
+ 0.696045 0 1 tcp 1040 ------- 0 0.0 3.0 30 45
- 0.696378 0 1 tcp 1040 ------- 0 0.0 3.0 30 45
r 0.696394 0 1 tcp 1040 ------- 0 0.0 3.0 23 38
+ 0.696394 1 2 tcp 1040 ------- 0 0.0 3.0 23 38
- 0.696394 1 2 tcp 1040 ------- 0 0.0 3.0 19 34
r 0.696726 0 1 tcp 1040 ------- 0 0.0 3.0 24 39
+ 0.696726 1 2 tcp 1040 ------- 0 0.0 3.0 24 39
r 0.699722 0 1 tcp 1040 ------- 0 0.0 3.0 25 40
+ 0.699722 1 2 tcp 1040 ------- 0 0.0 3.0 25 40
- 0.699722 1 2 tcp 1040 ------- 0 0.0 3.0 20 35
r 0.700054 0 1 tcp 1040 ------- 0 0.0 3.0 26 41
+ 0.700054 1 2 tcp 1040 ------- 0 0.0 3.0 26 41
r 0.70305 0 1 tcp 1040 ------- 0 0.0 3.0 27 42
+ 0.70305 1 2 tcp 1040 ------- 0 0.0 3.0 27 42
- 0.70305 1 2 tcp 1040 ------- 0 0.0 3.0 21 36
r 0.703382 0 1 tcp 1040 ------- 0 0.0 3.0 28 43
+ 0.703382 1 2 tcp 1040 ------- 0 0.0 3.0 28 43
r 0.706378 0 1 tcp 1040 ------- 0 0.0 3.0 29 44
+ 0.706378 1 2 tcp 1040 ------- 0 0.0 3.0 29 44
- 0.706378 1 2 tcp 1040 ------- 0 0.0 3.0 22 37
r 0.70671 0 1 tcp 1040 ------- 0 0.0 3.0 30 45
+ 0.70671 1 2 tcp 1040 ------- 0 0.0 3.0 30 45
- 0.709706 1 2 tcp 1040 ------- 0 0.0 3.0 23 38
- 0.713034 1 2 tcp 1040 ------- 0 0.0 3.0 24 39
- 0.716362 1 2 tcp 1040 ------- 0 0.0 3.0 25 40
- 0.71969 1 2 tcp 1040 ------- 0 0.0 3.0 26 41
- 0.723018 1 2 tcp 1040 ------- 0 0.0 3.0 27 42
- 0.726346 1 2 tcp 1040 ------- 0 0.0 3.0 28 43
- 0.729674 1 2 tcp 1040 ------- 0 0.0 3.0 29 44
- 0.733002 1 2 tcp 1040 ------- 0 0.0 3.0 30 45
r 0.73641 1 2 tcp 1040 ------- 0 0.0 3.0 15 30
+ 0.73641 2 3 tcp 1040 ------- 0 0.0 3.0 15 30
- 0.73641 2 3 tcp 1040 ------- 0 0.0 3.0 15 30
r 0.739738 1 2 tcp 1040 ------- 0 0.0 3.0 16 31
+ 0.739738 2 3 tcp 1040 ------- 0 0.0 3.0 16 31
- 0.739738 2 3 tcp 1040 ------- 0 0.0 3.0 16 31
r 0.743066 1 2 tcp 1040 ------- 0 0.0 3.0 17 32
+ 0.743066 2 3 tcp 1040 ------- 0 0.0 3.0 17 32
- 0.743066 2 3 tcp 1040 ------- 0 0.0 3.0 17 32
r 0.746394 1 2 tcp 1040 ------- 0 0.0 3.0 18 33
+ 0.746394 2 3 tcp 1040 ------- 0 0.0 3.0 18 33
- 0.746394 2 3 tcp 1040 ------- 0 0.0 3.0 18 33
r 0.746742 2 3 tcp 1040 ------- 0 0.0 3.0 15 30
+ 0.746742 3 2 ack 40 ------- 0 3.0 0.0 15 46
- 0.746742 3 2 ack 40 ------- 0 3.0 0.0 15 46
r 0.749722 1 2 tcp 1040 ------- 0 0.0 3.0 19 34
+ 0.749722 2 3 tcp 1040 ------- 0 0.0 3.0 19 34
- 0.749722 2 3 tcp 1040 ------- 0 0.0 3.0 19 34
r 0.75007 2 3 tcp 1040 ------- 0 0.0 3.0 16 31
+ 0.75007 3 2 ack 40 ------- 0 3.0 0.0 16 47
- 0.75007 3 2 ack 40 ------- 0 3.0 0.0 16 47
r 0.75305 1 2 tcp 1040 ------- 0 0.0 3.0 20 35
+ 0.75305 2 3 tcp 1040 ------- 0 0.0 3.0 20 35
- 0.75305 2 3 tcp 1040 ------- 0 0.0 3.0 20 35
r 0.753398 2 3 tcp 1040 ------- 0 0.0 3.0 17 32
+ 0.753398 3 2 ack 40 ------- 0 3.0 0.0 17 48
- 0.753398 3 2 ack 40 ------- 0 3.0 0.0 17 48
r 0.756378 1 2 tcp 1040 ------- 0 0.0 3.0 21 36
+ 0.756378 2 3 tcp 1040 ------- 0 0.0 3.0 21 36
- 0.756378 2 3 tcp 1040 ------- 0 0.0 3.0 21 36
r 0.756726 2 3 tcp 1040 ------- 0 0.0 3.0 18 33
+ 0.756726 3 2 ack 40 ------- 0 3.0 0.0 18 49
- 0.756726 3 2 ack 40 ------- 0 3.0 0.0 18 49
r 0.756755 3 2 ack 40 ------- 0 3.0 0.0 15 46
+ 0.756755 2 1 ack 40 ------- 0 3.0 0.0 15 46
- 0.756755 2 1 ack 40 ------- 0 3.0 0.0 15 46
r 0.759706 1 2 tcp 1040 ------- 0 0.0 3.0 22 37
+ 0.759706 2 3 tcp 1040 ------- 0 0.0 3.0 22 37
- 0.759706 2 3 tcp 1040 ------- 0 0.0 3.0 22 37
r 0.760054 2 3 tcp 1040 ------- 0 0.0 3.0 19 34
+ 0.760054 3 2 ack 40 ------- 0 3.0 0.0 19 50
- 0.760054 3 2 ack 40 ------- 0 3.0 0.0 19 50
r 0.760083 3 2 ack 40 ------- 0 3.0 0.0 16 47
+ 0.760083 2 1 ack 40 ------- 0 3.0 0.0 16 47
- 0.760083 2 1 ack 40 ------- 0 3.0 0.0 16 47
r 0.763034 1 2 tcp 1040 ------- 0 0.0 3.0 23 38
+ 0.763034 2 3 tcp 1040 ------- 0 0.0 3.0 23 38
- 0.763034 2 3 tcp 1040 ------- 0 0.0 3.0 23 38
r 0.763382 2 3 tcp 1040 ------- 0 0.0 3.0 20 35
+ 0.763382 3 2 ack 40 ------- 0 3.0 0.0 20 51
- 0.763382 3 2 ack 40 ------- 0 3.0 0.0 20 51
r 0.763411 3 2 ack 40 ------- 0 3.0 0.0 17 48
+ 0.763411 2 1 ack 40 ------- 0 3.0 0.0 17 48
- 0.763411 2 1 ack 40 ------- 0 3.0 0.0 17 48
r 0.766362 1 2 tcp 1040 ------- 0 0.0 3.0 24 39
+ 0.766362 2 3 tcp 1040 ------- 0 0.0 3.0 24 39
- 0.766362 2 3 tcp 1040 ------- 0 0.0 3.0 24 39
r 0.76671 2 3 tcp 1040 ------- 0 0.0 3.0 21 36
+ 0.76671 3 2 ack 40 ------- 0 3.0 0.0 21 52
- 0.76671 3 2 ack 40 ------- 0 3.0 0.0 21 52
r 0.766739 3 2 ack 40 ------- 0 3.0 0.0 18 49
+ 0.766739 2 1 ack 40 ------- 0 3.0 0.0 18 49
- 0.766739 2 1 ack 40 ------- 0 3.0 0.0 18 49
r 0.76969 1 2 tcp 1040 ------- 0 0.0 3.0 25 40
+ 0.76969 2 3 tcp 1040 ------- 0 0.0 3.0 25 40
- 0.76969 2 3 tcp 1040 ------- 0 0.0 3.0 25 40
r 0.770038 2 3 tcp 1040 ------- 0 0.0 3.0 22 37
+ 0.770038 3 2 ack 40 ------- 0 3.0 0.0 22 53
- 0.770038 3 2 ack 40 ------- 0 3.0 0.0 22 53
r 0.770067 3 2 ack 40 ------- 0 3.0 0.0 19 50
+ 0.770067 2 1 ack 40 ------- 0 3.0 0.0 19 50
- 0.770067 2 1 ack 40 ------- 0 3.0 0.0 19 50
r 0.773018 1 2 tcp 1040 ------- 0 0.0 3.0 26 41
+ 0.773018 2 3 tcp 1040 ------- 0 0.0 3.0 26 41
- 0.773018 2 3 tcp 1040 ------- 0 0.0 3.0 26 41
r 0.773366 2 3 tcp 1040 ------- 0 0.0 3.0 23 38
+ 0.773366 3 2 ack 40 ------- 0 3.0 0.0 23 54
- 0.773366 3 2 ack 40 ------- 0 3.0 0.0 23 54
r 0.773395 3 2 ack 40 ------- 0 3.0 0.0 20 51
+ 0.773395 2 1 ack 40 ------- 0 3.0 0.0 20 51
- 0.773395 2 1 ack 40 ------- 0 3.0 0.0 20 51
r 0.776346 1 2 tcp 1040 ------- 0 0.0 3.0 27 42
+ 0.776346 2 3 tcp 1040 ------- 0 0.0 3.0 27 42
- 0.776346 2 3 tcp 1040 ------- 0 0.0 3.0 27 42
r 0.776694 2 3 tcp 1040 ------- 0 0.0 3.0 24 39
+ 0.776694 3 2 ack 40 ------- 0 3.0 0.0 24 55
- 0.776694 3 2 ack 40 ------- 0 3.0 0.0 24 55
r 0.776723 3 2 ack 40 ------- 0 3.0 0.0 21 52
+ 0.776723 2 1 ack 40 ------- 0 3.0 0.0 21 52
- 0.776723 2 1 ack 40 ------- 0 3.0 0.0 21 52
r 0.779674 1 2 tcp 1040 ------- 0 0.0 3.0 28 43
+ 0.779674 2 3 tcp 1040 ------- 0 0.0 3.0 28 43
- 0.779674 2 3 tcp 1040 ------- 0 0.0 3.0 28 43
r 0.780022 2 3 tcp 1040 ------- 0 0.0 3.0 25 40
+ 0.780022 3 2 ack 40 ------- 0 3.0 0.0 25 56
- 0.780022 3 2 ack 40 ------- 0 3.0 0.0 25 56
r 0.780051 3 2 ack 40 ------- 0 3.0 0.0 22 53
+ 0.780051 2 1 ack 40 ------- 0 3.0 0.0 22 53
- 0.780051 2 1 ack 40 ------- 0 3.0 0.0 22 53
r 0.783002 1 2 tcp 1040 ------- 0 0.0 3.0 29 44
+ 0.783002 2 3 tcp 1040 ------- 0 0.0 3.0 29 44
- 0.783002 2 3 tcp 1040 ------- 0 0.0 3.0 29 44
r 0.78335 2 3 tcp 1040 ------- 0 0.0 3.0 26 41
+ 0.78335 3 2 ack 40 ------- 0 3.0 0.0 26 57
- 0.78335 3 2 ack 40 ------- 0 3.0 0.0 26 57
r 0.783379 3 2 ack 40 ------- 0 3.0 0.0 23 54
+ 0.783379 2 1 ack 40 ------- 0 3.0 0.0 23 54
- 0.783379 2 1 ack 40 ------- 0 3.0 0.0 23 54
r 0.78633 1 2 tcp 1040 ------- 0 0.0 3.0 30 45
+ 0.78633 2 3 tcp 1040 ------- 0 0.0 3.0 30 45
- 0.78633 2 3 tcp 1040 ------- 0 0.0 3.0 30 45
r 0.786678 2 3 tcp 1040 ------- 0 0.0 3.0 27 42
+ 0.786678 3 2 ack 40 ------- 0 3.0 0.0 27 58
- 0.786678 3 2 ack 40 ------- 0 3.0 0.0 27 58
r 0.786707 3 2 ack 40 ------- 0 3.0 0.0 24 55
+ 0.786707 2 1 ack 40 ------- 0 3.0 0.0 24 55
- 0.786707 2 1 ack 40 ------- 0 3.0 0.0 24 55
r 0.790006 2 3 tcp 1040 ------- 0 0.0 3.0 28 43
+ 0.790006 3 2 ack 40 ------- 0 3.0 0.0 28 59
- 0.790006 3 2 ack 40 ------- 0 3.0 0.0 28 59
r 0.790035 3 2 ack 40 ------- 0 3.0 0.0 25 56
+ 0.790035 2 1 ack 40 ------- 0 3.0 0.0 25 56
- 0.790035 2 1 ack 40 ------- 0 3.0 0.0 25 56
r 0.793334 2 3 tcp 1040 ------- 0 0.0 3.0 29 44
+ 0.793334 3 2 ack 40 ------- 0 3.0 0.0 29 60
- 0.793334 3 2 ack 40 ------- 0 3.0 0.0 29 60
r 0.793363 3 2 ack 40 ------- 0 3.0 0.0 26 57
+ 0.793363 2 1 ack 40 ------- 0 3.0 0.0 26 57
- 0.793363 2 1 ack 40 ------- 0 3.0 0.0 26 57
r 0.796662 2 3 tcp 1040 ------- 0 0.0 3.0 30 45
+ 0.796662 3 2 ack 40 ------- 0 3.0 0.0 30 61
- 0.796662 3 2 ack 40 ------- 0 3.0 0.0 30 61
r 0.796691 3 2 ack 40 ------- 0 3.0 0.0 27 58
+ 0.796691 2 1 ack 40 ------- 0 3.0 0.0 27 58
- 0.796691 2 1 ack 40 ------- 0 3.0 0.0 27 58
r 0.800019 3 2 ack 40 ------- 0 3.0 0.0 28 59
+ 0.800019 2 1 ack 40 ------- 0 3.0 0.0 28 59
- 0.800019 2 1 ack 40 ------- 0 3.0 0.0 28 59
r 0.803347 3 2 ack 40 ------- 0 3.0 0.0 29 60
+ 0.803347 2 1 ack 40 ------- 0 3.0 0.0 29 60
- 0.803347 2 1 ack 40 ------- 0 3.0 0.0 29 60
r 0.806675 3 2 ack 40 ------- 0 3.0 0.0 30 61
+ 0.806675 2 1 ack 40 ------- 0 3.0 0.0 30 61
- 0.806675 2 1 ack 40 ------- 0 3.0 0.0 30 61
r 0.806883 2 1 ack 40 ------- 0 3.0 0.0 15 46
+ 0.806883 1 0 ack 40 ------- 0 3.0 0.0 15 46
- 0.806883 1 0 ack 40 ------- 0 3.0 0.0 15 46
r 0.810211 2 1 ack 40 ------- 0 3.0 0.0 16 47
+ 0.810211 1 0 ack 40 ------- 0 3.0 0.0 16 47
- 0.810211 1 0 ack 40 ------- 0 3.0 0.0 16 47
r 0.813539 2 1 ack 40 ------- 0 3.0 0.0 17 48
+ 0.813539 1 0 ack 40 ------- 0 3.0 0.0 17 48
- 0.813539 1 0 ack 40 ------- 0 3.0 0.0 17 48
r 0.816867 2 1 ack 40 ------- 0 3.0 0.0 18 49
+ 0.816867 1 0 ack 40 ------- 0 3.0 0.0 18 49
- 0.816867 1 0 ack 40 ------- 0 3.0 0.0 18 49
r 0.816896 1 0 ack 40 ------- 0 3.0 0.0 15 46
+ 0.816896 0 1 tcp 1040 ------- 0 0.0 3.0 31 62
- 0.816896 0 1 tcp 1040 ------- 0 0.0 3.0 31 62
+ 0.816896 0 1 tcp 1040 ------- 0 0.0 3.0 32 63
- 0.817229 0 1 tcp 1040 ------- 0 0.0 3.0 32 63
r 0.820195 2 1 ack 40 ------- 0 3.0 0.0 19 50
+ 0.820195 1 0 ack 40 ------- 0 3.0 0.0 19 50
- 0.820195 1 0 ack 40 ------- 0 3.0 0.0 19 50
r 0.820224 1 0 ack 40 ------- 0 3.0 0.0 16 47
+ 0.820224 0 1 tcp 1040 ------- 0 0.0 3.0 33 64
- 0.820224 0 1 tcp 1040 ------- 0 0.0 3.0 33 64
+ 0.820224 0 1 tcp 1040 ------- 0 0.0 3.0 34 65
- 0.820557 0 1 tcp 1040 ------- 0 0.0 3.0 34 65
r 0.823523 2 1 ack 40 ------- 0 3.0 0.0 20 51
+ 0.823523 1 0 ack 40 ------- 0 3.0 0.0 20 51
- 0.823523 1 0 ack 40 ------- 0 3.0 0.0 20 51
r 0.823552 1 0 ack 40 ------- 0 3.0 0.0 17 48
+ 0.823552 0 1 tcp 1040 ------- 0 0.0 3.0 35 66
- 0.823552 0 1 tcp 1040 ------- 0 0.0 3.0 35 66
+ 0.823552 0 1 tcp 1040 ------- 0 0.0 3.0 36 67
- 0.823885 0 1 tcp 1040 ------- 0 0.0 3.0 36 67
r 0.826851 2 1 ack 40 ------- 0 3.0 0.0 21 52
+ 0.826851 1 0 ack 40 ------- 0 3.0 0.0 21 52
- 0.826851 1 0 ack 40 ------- 0 3.0 0.0 21 52
r 0.82688 1 0 ack 40 ------- 0 3.0 0.0 18 49
+ 0.82688 0 1 tcp 1040 ------- 0 0.0 3.0 37 68
- 0.82688 0 1 tcp 1040 ------- 0 0.0 3.0 37 68
+ 0.82688 0 1 tcp 1040 ------- 0 0.0 3.0 38 69
- 0.827213 0 1 tcp 1040 ------- 0 0.0 3.0 38 69
r 0.827229 0 1 tcp 1040 ------- 0 0.0 3.0 31 62
+ 0.827229 1 2 tcp 1040 ------- 0 0.0 3.0 31 62
- 0.827229 1 2 tcp 1040 ------- 0 0.0 3.0 31 62
r 0.827562 0 1 tcp 1040 ------- 0 0.0 3.0 32 63
+ 0.827562 1 2 tcp 1040 ------- 0 0.0 3.0 32 63
r 0.830179 2 1 ack 40 ------- 0 3.0 0.0 22 53
+ 0.830179 1 0 ack 40 ------- 0 3.0 0.0 22 53
- 0.830179 1 0 ack 40 ------- 0 3.0 0.0 22 53
r 0.830208 1 0 ack 40 ------- 0 3.0 0.0 19 50
+ 0.830208 0 1 tcp 1040 ------- 0 0.0 3.0 39 70
- 0.830208 0 1 tcp 1040 ------- 0 0.0 3.0 39 70
r 0.830557 0 1 tcp 1040 ------- 0 0.0 3.0 33 64
+ 0.830557 1 2 tcp 1040 ------- 0 0.0 3.0 33 64
- 0.830557 1 2 tcp 1040 ------- 0 0.0 3.0 32 63
r 0.83089 0 1 tcp 1040 ------- 0 0.0 3.0 34 65
+ 0.83089 1 2 tcp 1040 ------- 0 0.0 3.0 34 65
r 0.833507 2 1 ack 40 ------- 0 3.0 0.0 23 54
+ 0.833507 1 0 ack 40 ------- 0 3.0 0.0 23 54
- 0.833507 1 0 ack 40 ------- 0 3.0 0.0 23 54
r 0.833536 1 0 ack 40 ------- 0 3.0 0.0 20 51
+ 0.833536 0 1 tcp 1040 ------- 0 0.0 3.0 40 71
- 0.833536 0 1 tcp 1040 ------- 0 0.0 3.0 40 71
r 0.833885 0 1 tcp 1040 ------- 0 0.0 3.0 35 66
+ 0.833885 1 2 tcp 1040 ------- 0 0.0 3.0 35 66
- 0.833885 1 2 tcp 1040 ------- 0 0.0 3.0 33 64
r 0.834218 0 1 tcp 1040 ------- 0 0.0 3.0 36 67
+ 0.834218 1 2 tcp 1040 ------- 0 0.0 3.0 36 67
r 0.836835 2 1 ack 40 ------- 0 3.0 0.0 24 55
+ 0.836835 1 0 ack 40 ------- 0 3.0 0.0 24 55
- 0.836835 1 0 ack 40 ------- 0 3.0 0.0 24 55
r 0.836864 1 0 ack 40 ------- 0 3.0 0.0 21 52
+ 0.836864 0 1 tcp 1040 ------- 0 0.0 3.0 41 72
- 0.836864 0 1 tcp 1040 ------- 0 0.0 3.0 41 72
r 0.837213 0 1 tcp 1040 ------- 0 0.0 3.0 37 68
+ 0.837213 1 2 tcp 1040 ------- 0 0.0 3.0 37 68
- 0.837213 1 2 tcp 1040 ------- 0 0.0 3.0 34 65
r 0.837546 0 1 tcp 1040 ------- 0 0.0 3.0 38 69
+ 0.837546 1 2 tcp 1040 ------- 0 0.0 3.0 38 69
r 0.840163 2 1 ack 40 ------- 0 3.0 0.0 25 56
+ 0.840163 1 0 ack 40 ------- 0 3.0 0.0 25 56
- 0.840163 1 0 ack 40 ------- 0 3.0 0.0 25 56
r 0.840192 1 0 ack 40 ------- 0 3.0 0.0 22 53
+ 0.840192 0 1 tcp 1040 ------- 0 0.0 3.0 42 73
- 0.840192 0 1 tcp 1040 ------- 0 0.0 3.0 42 73
r 0.840541 0 1 tcp 1040 ------- 0 0.0 3.0 39 70
+ 0.840541 1 2 tcp 1040 ------- 0 0.0 3.0 39 70
- 0.840541 1 2 tcp 1040 ------- 0 0.0 3.0 35 66
r 0.843491 2 1 ack 40 ------- 0 3.0 0.0 26 57
+ 0.843491 1 0 ack 40 ------- 0 3.0 0.0 26 57
- 0.843491 1 0 ack 40 ------- 0 3.0 0.0 26 57
r 0.84352 1 0 ack 40 ------- 0 3.0 0.0 23 54
+ 0.84352 0 1 tcp 1040 ------- 0 0.0 3.0 43 74
- 0.84352 0 1 tcp 1040 ------- 0 0.0 3.0 43 74
r 0.843869 0 1 tcp 1040 ------- 0 0.0 3.0 40 71
+ 0.843869 1 2 tcp 1040 ------- 0 0.0 3.0 40 71
- 0.843869 1 2 tcp 1040 ------- 0 0.0 3.0 36 67
r 0.846819 2 1 ack 40 ------- 0 3.0 0.0 27 58
+ 0.846819 1 0 ack 40 ------- 0 3.0 0.0 27 58
- 0.846819 1 0 ack 40 ------- 0 3.0 0.0 27 58
r 0.846848 1 0 ack 40 ------- 0 3.0 0.0 24 55
+ 0.846848 0 1 tcp 1040 ------- 0 0.0 3.0 44 75
- 0.846848 0 1 tcp 1040 ------- 0 0.0 3.0 44 75
r 0.847197 0 1 tcp 1040 ------- 0 0.0 3.0 41 72
+ 0.847197 1 2 tcp 1040 ------- 0 0.0 3.0 41 72
- 0.847197 1 2 tcp 1040 ------- 0 0.0 3.0 37 68
r 0.850147 2 1 ack 40 ------- 0 3.0 0.0 28 59
+ 0.850147 1 0 ack 40 ------- 0 3.0 0.0 28 59
- 0.850147 1 0 ack 40 ------- 0 3.0 0.0 28 59
r 0.850176 1 0 ack 40 ------- 0 3.0 0.0 25 56
+ 0.850176 0 1 tcp 1040 ------- 0 0.0 3.0 45 76
- 0.850176 0 1 tcp 1040 ------- 0 0.0 3.0 45 76
r 0.850525 0 1 tcp 1040 ------- 0 0.0 3.0 42 73
+ 0.850525 1 2 tcp 1040 ------- 0 0.0 3.0 42 73
- 0.850525 1 2 tcp 1040 ------- 0 0.0 3.0 38 69
r 0.853475 2 1 ack 40 ------- 0 3.0 0.0 29 60
+ 0.853475 1 0 ack 40 ------- 0 3.0 0.0 29 60
- 0.853475 1 0 ack 40 ------- 0 3.0 0.0 29 60
r 0.853504 1 0 ack 40 ------- 0 3.0 0.0 26 57
+ 0.853504 0 1 tcp 1040 ------- 0 0.0 3.0 46 77
- 0.853504 0 1 tcp 1040 ------- 0 0.0 3.0 46 77
r 0.853853 0 1 tcp 1040 ------- 0 0.0 3.0 43 74
+ 0.853853 1 2 tcp 1040 ------- 0 0.0 3.0 43 74
- 0.853853 1 2 tcp 1040 ------- 0 0.0 3.0 39 70
r 0.856803 2 1 ack 40 ------- 0 3.0 0.0 30 61
+ 0.856803 1 0 ack 40 ------- 0 3.0 0.0 30 61
- 0.856803 1 0 ack 40 ------- 0 3.0 0.0 30 61
r 0.856832 1 0 ack 40 ------- 0 3.0 0.0 27 58
+ 0.856832 0 1 tcp 1040 ------- 0 0.0 3.0 47 78
- 0.856832 0 1 tcp 1040 ------- 0 0.0 3.0 47 78
r 0.857181 0 1 tcp 1040 ------- 0 0.0 3.0 44 75
+ 0.857181 1 2 tcp 1040 ------- 0 0.0 3.0 44 75
- 0.857181 1 2 tcp 1040 ------- 0 0.0 3.0 40 71
r 0.86016 1 0 ack 40 ------- 0 3.0 0.0 28 59
+ 0.86016 0 1 tcp 1040 ------- 0 0.0 3.0 48 79
- 0.86016 0 1 tcp 1040 ------- 0 0.0 3.0 48 79
r 0.860509 0 1 tcp 1040 ------- 0 0.0 3.0 45 76
+ 0.860509 1 2 tcp 1040 ------- 0 0.0 3.0 45 76
- 0.860509 1 2 tcp 1040 ------- 0 0.0 3.0 41 72
r 0.863488 1 0 ack 40 ------- 0 3.0 0.0 29 60
+ 0.863488 0 1 tcp 1040 ------- 0 0.0 3.0 49 80
- 0.863488 0 1 tcp 1040 ------- 0 0.0 3.0 49 80
r 0.863837 0 1 tcp 1040 ------- 0 0.0 3.0 46 77
+ 0.863837 1 2 tcp 1040 ------- 0 0.0 3.0 46 77
- 0.863837 1 2 tcp 1040 ------- 0 0.0 3.0 42 73
r 0.866816 1 0 ack 40 ------- 0 3.0 0.0 30 61
+ 0.866816 0 1 tcp 1040 ------- 0 0.0 3.0 50 81
- 0.866816 0 1 tcp 1040 ------- 0 0.0 3.0 50 81
r 0.867165 0 1 tcp 1040 ------- 0 0.0 3.0 47 78
+ 0.867165 1 2 tcp 1040 ------- 0 0.0 3.0 47 78