+ 0.1 0 1 tcp 40 ------- 0 0.0 3.0 0 0
- 0.1 0 1 tcp 40 ------- 0 0.0 3.0 0 0
+ 0.1 4 1 cbr 1000 ------- 0 4.0 5.0 0 1
- 0.1 4 1 cbr 1000 ------- 0 4.0 5.0 0 1
+ 0.1 4 1 cbr 1000 ------- 0 4.0 5.0 1 2
+ 0.1 4 1 cbr 1000 ------- 0 4.0 5.0 2 3
+ 0.1 4 1 cbr 1000 ------- 0 4.0 5.0 3 4
+ 0.1 4 1 cbr 1000 ------- 0 4.0 5.0 4 5
- 0.10032 4 1 cbr 1000 ------- 0 4.0 5.0 1 2
- 0.10064 4 1 cbr 1000 ------- 0 4.0 5.0 2 3
- 0.10096 4 1 cbr 1000 ------- 0 4.0 5.0 3 4
- 0.10128 4 1 cbr 1000 ------- 0 4.0 5.0 4 5
+ 0.108 4 1 cbr 1000 ------- 0 4.0 5.0 5 6
- 0.108 4 1 cbr 1000 ------- 0 4.0 5.0 5 6
+ 0.108 4 1 cbr 1000 ------- 0 4.0 5.0 6 7
+ 0.108 4 1 cbr 1000 ------- 0 4.0 5.0 7 8
+ 0.108 4 1 cbr 1000 ------- 0 4.0 5.0 8 9
+ 0.108 4 1 cbr 1000 ------- 0 4.0 5.0 9 10
- 0.10832 4 1 cbr 1000 ------- 0 4.0 5.0 6 7
- 0.10864 4 1 cbr 1000 ------- 0 4.0 5.0 7 8
- 0.10896 4 1 cbr 1000 ------- 0 4.0 5.0 8 9
- 0.10928 4 1 cbr 1000 ------- 0 4.0 5.0 9 10
r 0.110013 0 1 tcp 40 ------- 0 0.0 3.0 0 0
+ 0.110013 1 2 tcp 40 ------- 0 0.0 3.0 0 0
- 0.110013 1 2 tcp 40 ------- 0 0.0 3.0 0 0
r 0.11032 4 1 cbr 1000 ------- 0 4.0 5.0 0 1
+ 0.11032 1 2 cbr 1000 ------- 0 4.0 5.0 0 1
- 0.11032 1 2 cbr 1000 ------- 0 4.0 5.0 0 1
r 0.11064 4 1 cbr 1000 ------- 0 4.0 5.0 1 2
+ 0.11064 1 2 cbr 1000 ------- 0 4.0 5.0 1 2
r 0.11096 4 1 cbr 1000 ------- 0 4.0 5.0 2 3
+ 0.11096 1 2 cbr 1000 ------- 0 4.0 5.0 2 3
r 0.11128 4 1 cbr 1000 ------- 0 4.0 5.0 3 4
+ 0.11128 1 2 cbr 1000 ------- 0 4.0 5.0 3 4
r 0.1116 4 1 cbr 1000 ------- 0 4.0 5.0 4 5
+ 0.1116 1 2 cbr 1000 ------- 0 4.0 5.0 4 5
- 0.11352 1 2 cbr 1000 ------- 0 4.0 5.0 1 2
+ 0.116 4 1 cbr 1000 ------- 0 4.0 5.0 10 11
- 0.116 4 1 cbr 1000 ------- 0 4.0 5.0 10 11
+ 0.116 4 1 cbr 1000 ------- 0 4.0 5.0 11 12
+ 0.116 4 1 cbr 1000 ------- 0 4.0 5.0 12 13
+ 0.116 4 1 cbr 1000 ------- 0 4.0 5.0 13 14
+ 0.116 4 1 cbr 1000 ------- 0 4.0 5.0 14 15
- 0.11632 4 1 cbr 1000 ------- 0 4.0 5.0 11 12
- 0.11664 4 1 cbr 1000 ------- 0 4.0 5.0 12 13
- 0.11672 1 2 cbr 1000 ------- 0 4.0 5.0 2 3
- 0.11696 4 1 cbr 1000 ------- 0 4.0 5.0 13 14
- 0.11728 4 1 cbr 1000 ------- 0 4.0 5.0 14 15
r 0.11832 4 1 cbr 1000 ------- 0 4.0 5.0 5 6
+ 0.11832 1 2 cbr 1000 ------- 0 4.0 5.0 5 6
r 0.11864 4 1 cbr 1000 ------- 0 4.0 5.0 6 7
+ 0.11864 1 2 cbr 1000 ------- 0 4.0 5.0 6 7
r 0.11896 4 1 cbr 1000 ------- 0 4.0 5.0 7 8
+ 0.11896 1 2 cbr 1000 ------- 0 4.0 5.0 7 8
r 0.11928 4 1 cbr 1000 ------- 0 4.0 5.0 8 9
+ 0.11928 1 2 cbr 1000 ------- 0 4.0 5.0 8 9
r 0.1196 4 1 cbr 1000 ------- 0 4.0 5.0 9 10
+ 0.1196 1 2 cbr 1000 ------- 0 4.0 5.0 9 10
- 0.11992 1 2 cbr 1000 ------- 0 4.0 5.0 3 4
- 0.12312 1 2 cbr 1000 ------- 0 4.0 5.0 4 5
+ 0.124 4 1 cbr 1000 ------- 0 4.0 5.0 15 16
- 0.124 4 1 cbr 1000 ------- 0 4.0 5.0 15 16
+ 0.124 4 1 cbr 1000 ------- 0 4.0 5.0 16 17
+ 0.124 4 1 cbr 1000 ------- 0 4.0 5.0 17 18
+ 0.124 4 1 cbr 1000 ------- 0 4.0 5.0 18 19
+ 0.124 4 1 cbr 1000 ------- 0 4.0 5.0 19 20
- 0.12432 4 1 cbr 1000 ------- 0 4.0 5.0 16 17
- 0.12464 4 1 cbr 1000 ------- 0 4.0 5.0 17 18
- 0.12496 4 1 cbr 1000 ------- 0 4.0 5.0 18 19
- 0.12528 4 1 cbr 1000 ------- 0 4.0 5.0 19 20
- 0.12632 1 2 cbr 1000 ------- 0 4.0 5.0 5 6
r 0.12632 4 1 cbr 1000 ------- 0 4.0 5.0 10 11
+ 0.12632 1 2 cbr 1000 ------- 0 4.0 5.0 10 11
r 0.12664 4 1 cbr 1000 ------- 0 4.0 5.0 11 12
+ 0.12664 1 2 cbr 1000 ------- 0 4.0 5.0 11 12
r 0.12696 4 1 cbr 1000 ------- 0 4.0 5.0 12 13
+ 0.12696 1 2 cbr 1000 ------- 0 4.0 5.0 12 13
r 0.12728 4 1 cbr 1000 ------- 0 4.0 5.0 13 14
+ 0.12728 1 2 cbr 1000 ------- 0 4.0 5.0 13 14
r 0.1276 4 1 cbr 1000 ------- 0 4.0 5.0 14 15
+ 0.1276 1 2 cbr 1000 ------- 0 4.0 5.0 14 15
- 0.12952 1 2 cbr 1000 ------- 0 4.0 5.0 6 7
+ 0.132 4 1 cbr 1000 ------- 0 4.0 5.0 20 21
- 0.132 4 1 cbr 1000 ------- 0 4.0 5.0 20 21
+ 0.132 4 1 cbr 1000 ------- 0 4.0 5.0 21 22
+ 0.132 4 1 cbr 1000 ------- 0 4.0 5.0 22 23
+ 0.132 4 1 cbr 1000 ------- 0 4.0 5.0 23 24
+ 0.132 4 1 cbr 1000 ------- 0 4.0 5.0 24 25
- 0.13232 4 1 cbr 1000 ------- 0 4.0 5.0 21 22
- 0.13264 4 1 cbr 1000 ------- 0 4.0 5.0 22 23
- 0.13272 1 2 cbr 1000 ------- 0 4.0 5.0 7 8
- 0.13296 4 1 cbr 1000 ------- 0 4.0 5.0 23 24
- 0.13328 4 1 cbr 1000 ------- 0 4.0 5.0 24 25
r 0.13432 4 1 cbr 1000 ------- 0 4.0 5.0 15 16
+ 0.13432 1 2 cbr 1000 ------- 0 4.0 5.0 15 16
r 0.13464 4 1 cbr 1000 ------- 0 4.0 5.0 16 17
+ 0.13464 1 2 cbr 1000 ------- 0 4.0 5.0 16 17
r 0.13496 4 1 cbr 1000 ------- 0 4.0 5.0 17 18
+ 0.13496 1 2 cbr 1000 ------- 0 4.0 5.0 17 18
r 0.13528 4 1 cbr 1000 ------- 0 4.0 5.0 18 19
+ 0.13528 1 2 cbr 1000 ------- 0 4.0 5.0 18 19
r 0.1356 4 1 cbr 1000 ------- 0 4.0 5.0 19 20
+ 0.1356 1 2 cbr 1000 ------- 0 4.0 5.0 19 20
- 0.13592 1 2 cbr 1000 ------- 0 4.0 5.0 8 9
- 0.13912 1 2 cbr 1000 ------- 0 4.0 5.0 9 10
+ 0.14 4 1 cbr 1000 ------- 0 4.0 5.0 25 26
- 0.14 4 1 cbr 1000 ------- 0 4.0 5.0 25 26
+ 0.14 4 1 cbr 1000 ------- 0 4.0 5.0 26 27
+ 0.14 4 1 cbr 1000 ------- 0 4.0 5.0 27 28
+ 0.14 4 1 cbr 1000 ------- 0 4.0 5.0 28 29
+ 0.14 4 1 cbr 1000 ------- 0 4.0 5.0 29 30
- 0.14032 4 1 cbr 1000 ------- 0 4.0 5.0 26 27
- 0.14064 4 1 cbr 1000 ------- 0 4.0 5.0 27 28
- 0.14096 4 1 cbr 1000 ------- 0 4.0 5.0 28 29
- 0.14128 4 1 cbr 1000 ------- 0 4.0 5.0 29 30
r 0.14232 4 1 cbr 1000 ------- 0 4.0 5.0 20 21
+ 0.14232 1 2 cbr 1000 ------- 0 4.0 5.0 20 21
- 0.14232 1 2 cbr 1000 ------- 0 4.0 5.0 10 11
r 0.14264 4 1 cbr 1000 ------- 0 4.0 5.0 21 22
+ 0.14264 1 2 cbr 1000 ------- 0 4.0 5.0 21 22
r 0.14296 4 1 cbr 1000 ------- 0 4.0 5.0 22 23
+ 0.14296 1 2 cbr 1000 ------- 0 4.0 5.0 22 23
r 0.14328 4 1 cbr 1000 ------- 0 4.0 5.0 23 24
+ 0.14328 1 2 cbr 1000 ------- 0 4.0 5.0 23 24
r 0.1436 4 1 cbr 1000 ------- 0 4.0 5.0 24 25
+ 0.1436 1 2 cbr 1000 ------- 0 4.0 5.0 24 25
- 0.14552 1 2 cbr 1000 ------- 0 4.0 5.0 11 12
+ 0.148 4 1 cbr 1000 ------- 0 4.0 5.0 30 31
- 0.148 4 1 cbr 1000 ------- 0 4.0 5.0 30 31
+ 0.148 4 1 cbr 1000 ------- 0 4.0 5.0 31 32
+ 0.148 4 1 cbr 1000 ------- 0 4.0 5.0 32 33
+ 0.148 4 1 cbr 1000 ------- 0 4.0 5.0 33 34
+ 0.148 4 1 cbr 1000 ------- 0 4.0 5.0 34 35
- 0.14832 4 1 cbr 1000 ------- 0 4.0 5.0 31 32
- 0.14864 4 1 cbr 1000 ------- 0 4.0 5.0 32 33
- 0.14872 1 2 cbr 1000 ------- 0 4.0 5.0 12 13
- 0.14896 4 1 cbr 1000 ------- 0 4.0 5.0 33 34
- 0.14928 4 1 cbr 1000 ------- 0 4.0 5.0 34 35
r 0.15032 4 1 cbr 1000 ------- 0 4.0 5.0 25 26
+ 0.15032 1 2 cbr 1000 ------- 0 4.0 5.0 25 26
r 0.15064 4 1 cbr 1000 ------- 0 4.0 5.0 26 27
+ 0.15064 1 2 cbr 1000 ------- 0 4.0 5.0 26 27
r 0.15096 4 1 cbr 1000 ------- 0 4.0 5.0 27 28
+ 0.15096 1 2 cbr 1000 ------- 0 4.0 5.0 27 28
r 0.15128 4 1 cbr 1000 ------- 0 4.0 5.0 28 29
+ 0.15128 1 2 cbr 1000 ------- 0 4.0 5.0 28 29
r 0.1516 4 1 cbr 1000 ------- 0 4.0 5.0 29 30
+ 0.1516 1 2 cbr 1000 ------- 0 4.0 5.0 29 30
- 0.15192 1 2 cbr 1000 ------- 0 4.0 5.0 13 14
- 0.15512 1 2 cbr 1000 ------- 0 4.0 5.0 14 15
+ 0.156 4 1 cbr 1000 ------- 0 4.0 5.0 35 36
- 0.156 4 1 cbr 1000 ------- 0 4.0 5.0 35 36
+ 0.156 4 1 cbr 1000 ------- 0 4.0 5.0 36 37
+ 0.156 4 1 cbr 1000 ------- 0 4.0 5.0 37 38
+ 0.156 4 1 cbr 1000 ------- 0 4.0 5.0 38 39
+ 0.156 4 1 cbr 1000 ------- 0 4.0 5.0 39 40
- 0.15632 4 1 cbr 1000 ------- 0 4.0 5.0 36 37
- 0.15664 4 1 cbr 1000 ------- 0 4.0 5.0 37 38
- 0.15696 4 1 cbr 1000 ------- 0 4.0 5.0 38 39
- 0.15728 4 1 cbr 1000 ------- 0 4.0 5.0 39 40
r 0.15832 4 1 cbr 1000 ------- 0 4.0 5.0 30 31
+ 0.15832 1 2 cbr 1000 ------- 0 4.0 5.0 30 31
- 0.15832 1 2 cbr 1000 ------- 0 4.0 5.0 15 16
r 0.15864 4 1 cbr 1000 ------- 0 4.0 5.0 31 32
+ 0.15864 1 2 cbr 1000 ------- 0 4.0 5.0 31 32
r 0.15896 4 1 cbr 1000 ------- 0 4.0 5.0 32 33
+ 0.15896 1 2 cbr 1000 ------- 0 4.0 5.0 32 33
r 0.15928 4 1 cbr 1000 ------- 0 4.0 5.0 33 34
+ 0.15928 1 2 cbr 1000 ------- 0 4.0 5.0 33 34
r 0.1596 4 1 cbr 1000 ------- 0 4.0 5.0 34 35
+ 0.1596 1 2 cbr 1000 ------- 0 4.0 5.0 34 35
r 0.160141 1 2 tcp 40 ------- 0 0.0 3.0 0 0
+ 0.160141 2 3 tcp 40 ------- 0 0.0 3.0 0 0
- 0.160141 2 3 tcp 40 ------- 0 0.0 3.0 0 0
- 0.16152 1 2 cbr 1000 ------- 0 4.0 5.0 16 17
r 0.16352 1 2 cbr 1000 ------- 0 4.0 5.0 0 1
+ 0.16352 2 5 cbr 1000 ------- 0 4.0 5.0 0 1
- 0.16352 2 5 cbr 1000 ------- 0 4.0 5.0 0 1
+ 0.164 4 1 cbr 1000 ------- 0 4.0 5.0 40 41
- 0.164 4 1 cbr 1000 ------- 0 4.0 5.0 40 41
+ 0.164 4 1 cbr 1000 ------- 0 4.0 5.0 41 42
+ 0.164 4 1 cbr 1000 ------- 0 4.0 5.0 42 43
+ 0.164 4 1 cbr 1000 ------- 0 4.0 5.0 43 44
+ 0.164 4 1 cbr 1000 ------- 0 4.0 5.0 44 45
- 0.16432 4 1 cbr 1000 ------- 0 4.0 5.0 41 42
- 0.16464 4 1 cbr 1000 ------- 0 4.0 5.0 42 43
- 0.16472 1 2 cbr 1000 ------- 0 4.0 5.0 17 18
- 0.16496 4 1 cbr 1000 ------- 0 4.0 5.0 43 44
- 0.16528 4 1 cbr 1000 ------- 0 4.0 5.0 44 45
r 0.16632 4 1 cbr 1000 ------- 0 4.0 5.0 35 36
+ 0.16632 1 2 cbr 1000 ------- 0 4.0 5.0 35 36
r 0.16664 4 1 cbr 1000 ------- 0 4.0 5.0 36 37
+ 0.16664 1 2 cbr 1000 ------- 0 4.0 5.0 36 37
r 0.16672 1 2 cbr 1000 ------- 0 4.0 5.0 1 2
+ 0.16672 2 5 cbr 1000 ------- 0 4.0 5.0 1 2
- 0.16672 2 5 cbr 1000 ------- 0 4.0 5.0 1 2
r 0.16696 4 1 cbr 1000 ------- 0 4.0 5.0 37 38
+ 0.16696 1 2 cbr 1000 ------- 0 4.0 5.0 37 38
r 0.16728 4 1 cbr 1000 ------- 0 4.0 5.0 38 39
+ 0.16728 1 2 cbr 1000 ------- 0 4.0 5.0 38 39
r 0.1676 4 1 cbr 1000 ------- 0 4.0 5.0 39 40
+ 0.1676 1 2 cbr 1000 ------- 0 4.0 5.0 39 40
- 0.16792 1 2 cbr 1000 ------- 0 4.0 5.0 18 19
r 0.16992 1 2 cbr 1000 ------- 0 4.0 5.0 2 3
+ 0.16992 2 5 cbr 1000 ------- 0 4.0 5.0 2 3
- 0.16992 2 5 cbr 1000 ------- 0 4.0 5.0 2 3
r 0.170154 2 3 tcp 40 ------- 0 0.0 3.0 0 0
+ 0.170154 3 2 ack 40 ------- 0 3.0 0.0 0 46
- 0.170154 3 2 ack 40 ------- 0 3.0 0.0 0 46
- 0.17112 1 2 cbr 1000 ------- 0 4.0 5.0 19 20
+ 0.172 4 1 cbr 1000 ------- 0 4.0 5.0 45 47
- 0.172 4 1 cbr 1000 ------- 0 4.0 5.0 45 47
+ 0.172 4 1 cbr 1000 ------- 0 4.0 5.0 46 48
+ 0.172 4 1 cbr 1000 ------- 0 4.0 5.0 47 49
+ 0.172 4 1 cbr 1000 ------- 0 4.0 5.0 48 50
+ 0.172 4 1 cbr 1000 ------- 0 4.0 5.0 49 51
- 0.17232 4 1 cbr 1000 ------- 0 4.0 5.0 46 48
- 0.17264 4 1 cbr 1000 ------- 0 4.0 5.0 47 49
- 0.17296 4 1 cbr 1000 ------- 0 4.0 5.0 48 50
r 0.17312 1 2 cbr 1000 ------- 0 4.0 5.0 3 4
+ 0.17312 2 5 cbr 1000 ------- 0 4.0 5.0 3 4
- 0.17312 2 5 cbr 1000 ------- 0 4.0 5.0 3 4
- 0.17328 4 1 cbr 1000 ------- 0 4.0 5.0 49 51
r 0.17384 2 5 cbr 1000 ------- 0 4.0 5.0 0 1
r 0.17432 4 1 cbr 1000 ------- 0 4.0 5.0 40 41
+ 0.17432 1 2 cbr 1000 ------- 0 4.0 5.0 40 41
- 0.17432 1 2 cbr 1000 ------- 0 4.0 5.0 20 21
r 0.17464 4 1 cbr 1000 ------- 0 4.0 5.0 41 42
+ 0.17464 1 2 cbr 1000 ------- 0 4.0 5.0 41 42
r 0.17496 4 1 cbr 1000 ------- 0 4.0 5.0 42 43
+ 0.17496 1 2 cbr 1000 ------- 0 4.0 5.0 42 43
r 0.17528 4 1 cbr 1000 ------- 0 4.0 5.0 43 44
+ 0.17528 1 2 cbr 1000 ------- 0 4.0 5.0 43 44
r 0.1756 4 1 cbr 1000 ------- 0 4.0 5.0 44 45
+ 0.1756 1 2 cbr 1000 ------- 0 4.0 5.0 44 45
r 0.17632 1 2 cbr 1000 ------- 0 4.0 5.0 4 5
+ 0.17632 2 5 cbr 1000 ------- 0 4.0 5.0 4 5
- 0.17632 2 5 cbr 1000 ------- 0 4.0 5.0 4 5
r 0.17704 2 5 cbr 1000 ------- 0 4.0 5.0 1 2
- 0.17752 1 2 cbr 1000 ------- 0 4.0 5.0 21 22
r 0.17952 1 2 cbr 1000 ------- 0 4.0 5.0 5 6
+ 0.17952 2 5 cbr 1000 ------- 0 4.0 5.0 5 6
- 0.17952 2 5 cbr 1000 ------- 0 4.0 5.0 5 6
+ 0.18 4 1 cbr 1000 ------- 0 4.0 5.0 50 52
- 0.18 4 1 cbr 1000 ------- 0 4.0 5.0 50 52
+ 0.18 4 1 cbr 1000 ------- 0 4.0 5.0 51 53
+ 0.18 4 1 cbr 1000 ------- 0 4.0 5.0 52 54
+ 0.18 4 1 cbr 1000 ------- 0 4.0 5.0 53 55
+ 0.18 4 1 cbr 1000 ------- 0 4.0 5.0 54 56
r 0.180166 3 2 ack 40 ------- 0 3.0 0.0 0 46
+ 0.180166 2 1 ack 40 ------- 0 3.0 0.0 0 46
- 0.180166 2 1 ack 40 ------- 0 3.0 0.0 0 46
r 0.18024 2 5 cbr 1000 ------- 0 4.0 5.0 2 3
- 0.18032 4 1 cbr 1000 ------- 0 4.0 5.0 51 53
- 0.18064 4 1 cbr 1000 ------- 0 4.0 5.0 52 54
- 0.18072 1 2 cbr 1000 ------- 0 4.0 5.0 22 23
- 0.18096 4 1 cbr 1000 ------- 0 4.0 5.0 53 55
- 0.18128 4 1 cbr 1000 ------- 0 4.0 5.0 54 56
r 0.18232 4 1 cbr 1000 ------- 0 4.0 5.0 45 47
+ 0.18232 1 2 cbr 1000 ------- 0 4.0 5.0 45 47
r 0.18264 4 1 cbr 1000 ------- 0 4.0 5.0 46 48
+ 0.18264 1 2 cbr 1000 ------- 0 4.0 5.0 46 48
r 0.18272 1 2 cbr 1000 ------- 0 4.0 5.0 6 7
+ 0.18272 2 5 cbr 1000 ------- 0 4.0 5.0 6 7
- 0.18272 2 5 cbr 1000 ------- 0 4.0 5.0 6 7
r 0.18296 4 1 cbr 1000 ------- 0 4.0 5.0 47 49
+ 0.18296 1 2 cbr 1000 ------- 0 4.0 5.0 47 49
d 0.18296 1 2 cbr 1000 ------- 0 4.0 5.0 47 49
r 0.18328 4 1 cbr 1000 ------- 0 4.0 5.0 48 50
+ 0.18328 1 2 cbr 1000 ------- 0 4.0 5.0 48 50
d 0.18328 1 2 cbr 1000 ------- 0 4.0 5.0 48 50
r 0.18344 2 5 cbr 1000 ------- 0 4.0 5.0 3 4
r 0.1836 4 1 cbr 1000 ------- 0 4.0 5.0 49 51
+ 0.1836 1 2 cbr 1000 ------- 0 4.0 5.0 49 51
d 0.1836 1 2 cbr 1000 ------- 0 4.0 5.0 49 51
- 0.18392 1 2 cbr 1000 ------- 0 4.0 5.0 23 24
r 0.18592 1 2 cbr 1000 ------- 0 4.0 5.0 7 8
+ 0.18592 2 5 cbr 1000 ------- 0 4.0 5.0 7 8
- 0.18592 2 5 cbr 1000 ------- 0 4.0 5.0 7 8
r 0.18664 2 5 cbr 1000 ------- 0 4.0 5.0 4 5
- 0.18712 1 2 cbr 1000 ------- 0 4.0 5.0 24 25
+ 0.188 4 1 cbr 1000 ------- 0 4.0 5.0 55 57
- 0.188 4 1 cbr 1000 ------- 0 4.0 5.0 55 57
+ 0.188 4 1 cbr 1000 ------- 0 4.0 5.0 56 58
+ 0.188 4 1 cbr 1000 ------- 0 4.0 5.0 57 59
+ 0.188 4 1 cbr 1000 ------- 0 4.0 5.0 58 60
+ 0.188 4 1 cbr 1000 ------- 0 4.0 5.0 59 61
- 0.18832 4 1 cbr 1000 ------- 0 4.0 5.0 56 58
- 0.18864 4 1 cbr 1000 ------- 0 4.0 5.0 57 59
- 0.18896 4 1 cbr 1000 ------- 0 4.0 5.0 58 60
r 0.18912 1 2 cbr 1000 ------- 0 4.0 5.0 8 9
+ 0.18912 2 5 cbr 1000 ------- 0 4.0 5.0 8 9
- 0.18912 2 5 cbr 1000 ------- 0 4.0 5.0 8 9
- 0.18928 4 1 cbr 1000 ------- 0 4.0 5.0 59 61
r 0.18984 2 5 cbr 1000 ------- 0 4.0 5.0 5 6
r 0.19032 4 1 cbr 1000 ------- 0 4.0 5.0 50 52
+ 0.19032 1 2 cbr 1000 ------- 0 4.0 5.0 50 52
- 0.19032 1 2 cbr 1000 ------- 0 4.0 5.0 25 26
r 0.19064 4 1 cbr 1000 ------- 0 4.0 5.0 51 53
+ 0.19064 1 2 cbr 1000 ------- 0 4.0 5.0 51 53
r 0.19096 4 1 cbr 1000 ------- 0 4.0 5.0 52 54
+ 0.19096 1 2 cbr 1000 ------- 0 4.0 5.0 52 54
r 0.19128 4 1 cbr 1000 ------- 0 4.0 5.0 53 55
+ 0.19128 1 2 cbr 1000 ------- 0 4.0 5.0 53 55
d 0.19128 1 2 cbr 1000 ------- 0 4.0 5.0 53 55
r 0.1916 4 1 cbr 1000 ------- 0 4.0 5.0 54 56
+ 0.1916 1 2 cbr 1000 ------- 0 4.0 5.0 54 56
d 0.1916 1 2 cbr 1000 ------- 0 4.0 5.0 54 56
r 0.19232 1 2 cbr 1000 ------- 0 4.0 5.0 9 10
+ 0.19232 2 5 cbr 1000 ------- 0 4.0 5.0 9 10
- 0.19232 2 5 cbr 1000 ------- 0 4.0 5.0 9 10
r 0.19304 2 5 cbr 1000 ------- 0 4.0 5.0 6 7
- 0.19352 1 2 cbr 1000 ------- 0 4.0 5.0 26 27
r 0.19552 1 2 cbr 1000 ------- 0 4.0 5.0 10 11
+ 0.19552 2 5 cbr 1000 ------- 0 4.0 5.0 10 11
- 0.19552 2 5 cbr 1000 ------- 0 4.0 5.0 10 11
+ 0.196 4 1 cbr 1000 ------- 0 4.0 5.0 60 62
- 0.196 4 1 cbr 1000 ------- 0 4.0 5.0 60 62
+ 0.196 4 1 cbr 1000 ------- 0 4.0 5.0 61 63
+ 0.196 4 1 cbr 1000 ------- 0 4.0 5.0 62 64
+ 0.196 4 1 cbr 1000 ------- 0 4.0 5.0 63 65
+ 0.196 4 1 cbr 1000 ------- 0 4.0 5.0 64 66
r 0.19624 2 5 cbr 1000 ------- 0 4.0 5.0 7 8
- 0.19632 4 1 cbr 1000 ------- 0 4.0 5.0 61 63
- 0.19664 4 1 cbr 1000 ------- 0 4.0 5.0 62 64
- 0.19672 1 2 cbr 1000 ------- 0 4.0 5.0 27 28
- 0.19696 4 1 cbr 1000 ------- 0 4.0 5.0 63 65
- 0.19728 4 1 cbr 1000 ------- 0 4.0 5.0 64 66
r 0.19832 4 1 cbr 1000 ------- 0 4.0 5.0 55 57
+ 0.19832 1 2 cbr 1000 ------- 0 4.0 5.0 55 57
r 0.19864 4 1 cbr 1000 ------- 0 4.0 5.0 56 58
+ 0.19864 1 2 cbr 1000 ------- 0 4.0 5.0 56 58
r 0.19872 1 2 cbr 1000 ------- 0 4.0 5.0 11 12
+ 0.19872 2 5 cbr 1000 ------- 0 4.0 5.0 11 12
- 0.19872 2 5 cbr 1000 ------- 0 4.0 5.0 11 12
r 0.19896 4 1 cbr 1000 ------- 0 4.0 5.0 57 59
+ 0.19896 1 2 cbr 1000 ------- 0 4.0 5.0 57 59
d 0.19896 1 2 cbr 1000 ------- 0 4.0 5.0 57 59
r 0.19928 4 1 cbr 1000 ------- 0 4.0 5.0 58 60
+ 0.19928 1 2 cbr 1000 ------- 0 4.0 5.0 58 60
d 0.19928 1 2 cbr 1000 ------- 0 4.0 5.0 58 60
r 0.19944 2 5 cbr 1000 ------- 0 4.0 5.0 8 9
r 0.1996 4 1 cbr 1000 ------- 0 4.0 5.0 59 61
+ 0.1996 1 2 cbr 1000 ------- 0 4.0 5.0 59 61
d 0.1996 1 2 cbr 1000 ------- 0 4.0 5.0 59 61
- 0.19992 1 2 cbr 1000 ------- 0 4.0 5.0 28 29
r 0.20192 1 2 cbr 1000 ------- 0 4.0 5.0 12 13
+ 0.20192 2 5 cbr 1000 ------- 0 4.0 5.0 12 13
- 0.20192 2 5 cbr 1000 ------- 0 4.0 5.0 12 13
r 0.20264 2 5 cbr 1000 ------- 0 4.0 5.0 9 10
- 0.20312 1 2 cbr 1000 ------- 0 4.0 5.0 29 30
+ 0.204 4 1 cbr 1000 ------- 0 4.0 5.0 65 67
- 0.204 4 1 cbr 1000 ------- 0 4.0 5.0 65 67
+ 0.204 4 1 cbr 1000 ------- 0 4.0 5.0 66 68
+ 0.204 4 1 cbr 1000 ------- 0 4.0 5.0 67 69
+ 0.204 4 1 cbr 1000 ------- 0 4.0 5.0 68 70
+ 0.204 4 1 cbr 1000 ------- 0 4.0 5.0 69 71
- 0.20432 4 1 cbr 1000 ------- 0 4.0 5.0 66 68
- 0.20464 4 1 cbr 1000 ------- 0 4.0 5.0 67 69
- 0.20496 4 1 cbr 1000 ------- 0 4.0 5.0 68 70
r 0.20512 1 2 cbr 1000 ------- 0 4.0 5.0 13 14
+ 0.20512 2 5 cbr 1000 ------- 0 4.0 5.0 13 14
- 0.20512 2 5 cbr 1000 ------- 0 4.0 5.0 13 14
- 0.20528 4 1 cbr 1000 ------- 0 4.0 5.0 69 71
r 0.20584 2 5 cbr 1000 ------- 0 4.0 5.0 10 11
r 0.20632 4 1 cbr 1000 ------- 0 4.0 5.0 60 62
+ 0.20632 1 2 cbr 1000 ------- 0 4.0 5.0 60 62
- 0.20632 1 2 cbr 1000 ------- 0 4.0 5.0 30 31
r 0.20664 4 1 cbr 1000 ------- 0 4.0 5.0 61 63
+ 0.20664 1 2 cbr 1000 ------- 0 4.0 5.0 61 63
r 0.20696 4 1 cbr 1000 ------- 0 4.0 5.0 62 64
+ 0.20696 1 2 cbr 1000 ------- 0 4.0 5.0 62 64
r 0.20728 4 1 cbr 1000 ------- 0 4.0 5.0 63 65
+ 0.20728 1 2 cbr 1000 ------- 0 4.0 5.0 63 65
d 0.20728 1 2 cbr 1000 ------- 0 4.0 5.0 63 65
r 0.2076 4 1 cbr 1000 ------- 0 4.0 5.0 64 66
+ 0.2076 1 2 cbr 1000 ------- 0 4.0 5.0 64 66
d 0.2076 1 2 cbr 1000 ------- 0 4.0 5.0 64 66
r 0.20832 1 2 cbr 1000 ------- 0 4.0 5.0 14 15
+ 0.20832 2 5 cbr 1000 ------- 0 4.0 5.0 14 15
- 0.20832 2 5 cbr 1000 ------- 0 4.0 5.0 14 15
r 0.20904 2 5 cbr 1000 ------- 0 4.0 5.0 11 12
- 0.20952 1 2 cbr 1000 ------- 0 4.0 5.0 31 32
r 0.21152 1 2 cbr 1000 ------- 0 4.0 5.0 15 16
+ 0.21152 2 5 cbr 1000 ------- 0 4.0 5.0 15 16
- 0.21152 2 5 cbr 1000 ------- 0 4.0 5.0 15 16
+ 0.212 4 1 cbr 1000 ------- 0 4.0 5.0 70 72
- 0.212 4 1 cbr 1000 ------- 0 4.0 5.0 70 72
+ 0.212 4 1 cbr 1000 ------- 0 4.0 5.0 71 73
+ 0.212 4 1 cbr 1000 ------- 0 4.0 5.0 72 74
+ 0.212 4 1 cbr 1000 ------- 0 4.0 5.0 73 75
+ 0.212 4 1 cbr 1000 ------- 0 4.0 5.0 74 76
r 0.21224 2 5 cbr 1000 ------- 0 4.0 5.0 12 13
- 0.21232 4 1 cbr 1000 ------- 0 4.0 5.0 71 73
- 0.21264 4 1 cbr 1000 ------- 0 4.0 5.0 72 74
- 0.21272 1 2 cbr 1000 ------- 0 4.0 5.0 32 33
- 0.21296 4 1 cbr 1000 ------- 0 4.0 5.0 73 75
- 0.21328 4 1 cbr 1000 ------- 0 4.0 5.0 74 76
r 0.21432 4 1 cbr 1000 ------- 0 4.0 5.0 65 67
+ 0.21432 1 2 cbr 1000 ------- 0 4.0 5.0 65 67
r 0.21464 4 1 cbr 1000 ------- 0 4.0 5.0 66 68
+ 0.21464 1 2 cbr 1000 ------- 0 4.0 5.0 66 68
r 0.21472 1 2 cbr 1000 ------- 0 4.0 5.0 16 17
+ 0.21472 2 5 cbr 1000 ------- 0 4.0 5.0 16 17
- 0.21472 2 5 cbr 1000 ------- 0 4.0 5.0 16 17
r 0.21496 4 1 cbr 1000 ------- 0 4.0 5.0 67 69
+ 0.21496 1 2 cbr 1000 ------- 0 4.0 5.0 67 69
d 0.21496 1 2 cbr 1000 ------- 0 4.0 5.0 67 69
r 0.21528 4 1 cbr 1000 ------- 0 4.0 5.0 68 70
+ 0.21528 1 2 cbr 1000 ------- 0 4.0 5.0 68 70
d 0.21528 1 2 cbr 1000 ------- 0 4.0 5.0 68 70
r 0.21544 2 5 cbr 1000 ------- 0 4.0 5.0 13 14
r 0.2156 4 1 cbr 1000 ------- 0 4.0 5.0 69 71
+ 0.2156 1 2 cbr 1000 ------- 0 4.0 5.0 69 71
d 0.2156 1 2 cbr 1000 ------- 0 4.0 5.0 69 71
- 0.21592 1 2 cbr 1000 ------- 0 4.0 5.0 33 34
r 0.21792 1 2 cbr 1000 ------- 0 4.0 5.0 17 18
+ 0.21792 2 5 cbr 1000 ------- 0 4.0 5.0 17 18
- 0.21792 2 5 cbr 1000 ------- 0 4.0 5.0 17 18
r 0.21864 2 5 cbr 1000 ------- 0 4.0 5.0 14 15
- 0.21912 1 2 cbr 1000 ------- 0 4.0 5.0 34 35
+ 0.22 4 1 cbr 1000 ------- 0 4.0 5.0 75 77
- 0.22 4 1 cbr 1000 ------- 0 4.0 5.0 75 77
+ 0.22 4 1 cbr 1000 ------- 0 4.0 5.0 76 78
+ 0.22 4 1 cbr 1000 ------- 0 4.0 5.0 77 79
+ 0.22 4 1 cbr 1000 ------- 0 4.0 5.0 78 80
+ 0.22 4 1 cbr 1000 ------- 0 4.0 5.0 79 81
- 0.22032 4 1 cbr 1000 ------- 0 4.0 5.0 76 78
- 0.22064 4 1 cbr 1000 ------- 0 4.0 5.0 77 79
- 0.22096 4 1 cbr 1000 ------- 0 4.0 5.0 78 80
r 0.22112 1 2 cbr 1000 ------- 0 4.0 5.0 18 19
+ 0.22112 2 5 cbr 1000 ------- 0 4.0 5.0 18 19
- 0.22112 2 5 cbr 1000 ------- 0 4.0 5.0 18 19
- 0.22128 4 1 cbr 1000 ------- 0 4.0 5.0 79 81
r 0.22184 2 5 cbr 1000 ------- 0 4.0 5.0 15 16
r 0.22232 4 1 cbr 1000 ------- 0 4.0 5.0 70 72
+ 0.22232 1 2 cbr 1000 ------- 0 4.0 5.0 70 72
- 0.22232 1 2 cbr 1000 ------- 0 4.0 5.0 35 36
r 0.22264 4 1 cbr 1000 ------- 0 4.0 5.0 71 73
+ 0.22264 1 2 cbr 1000 ------- 0 4.0 5.0 71 73
r 0.22296 4 1 cbr 1000 ------- 0 4.0 5.0 72 74
+ 0.22296 1 2 cbr 1000 ------- 0 4.0 5.0 72 74
r 0.22328 4 1 cbr 1000 ------- 0 4.0 5.0 73 75
+ 0.22328 1 2 cbr 1000 ------- 0 4.0 5.0 73 75
d 0.22328 1 2 cbr 1000 ------- 0 4.0 5.0 73 75
r 0.2236 4 1 cbr 1000 ------- 0 4.0 5.0 74 76
+ 0.2236 1 2 cbr 1000 ------- 0 4.0 5.0 74 76
d 0.2236 1 2 cbr 1000 ------- 0 4.0 5.0 74 76
r 0.22432 1 2 cbr 1000 ------- 0 4.0 5.0 19 20
+ 0.22432 2 5 cbr 1000 ------- 0 4.0 5.0 19 20
- 0.22432 2 5 cbr 1000 ------- 0 4.0 5.0 19 20
r 0.22504 2 5 cbr 1000 ------- 0 4.0 5.0 16 17
- 0.22552 1 2 cbr 1000 ------- 0 4.0 5.0 36 37
r 0.22752 1 2 cbr 1000 ------- 0 4.0 5.0 20 21
+ 0.22752 2 5 cbr 1000 ------- 0 4.0 5.0 20 21
- 0.22752 2 5 cbr 1000 ------- 0 4.0 5.0 20 21
+ 0.228 4 1 cbr 1000 ------- 0 4.0 5.0 80 82
- 0.228 4 1 cbr 1000 ------- 0 4.0 5.0 80 82
+ 0.228 4 1 cbr 1000 ------- 0 4.0 5.0 81 83
+ 0.228 4 1 cbr 1000 ------- 0 4.0 5.0 82 84
+ 0.228 4 1 cbr 1000 ------- 0 4.0 5.0 83 85
+ 0.228 4 1 cbr 1000 ------- 0 4.0 5.0 84 86
r 0.22824 2 5 cbr 1000 ------- 0 4.0 5.0 17 18
- 0.22832 4 1 cbr 1000 ------- 0 4.0 5.0 81 83
- 0.22864 4 1 cbr 1000 ------- 0 4.0 5.0 82 84
- 0.22872 1 2 cbr 1000 ------- 0 4.0 5.0 37 38
- 0.22896 4 1 cbr 1000 ------- 0 4.0 5.0 83 85
- 0.22928 4 1 cbr 1000 ------- 0 4.0 5.0 84 86
r 0.230294 2 1 ack 40 ------- 0 3.0 0.0 0 46
+ 0.230294 1 0 ack 40 ------- 0 3.0 0.0 0 46
- 0.230294 1 0 ack 40 ------- 0 3.0 0.0 0 46
r 0.23032 4 1 cbr 1000 ------- 0 4.0 5.0 75 77
+ 0.23032 1 2 cbr 1000 ------- 0 4.0 5.0 75 77
r 0.23064 4 1 cbr 1000 ------- 0 4.0 5.0 76 78
+ 0.23064 1 2 cbr 1000 ------- 0 4.0 5.0 76 78
r 0.23072 1 2 cbr 1000 ------- 0 4.0 5.0 21 22
+ 0.23072 2 5 cbr 1000 ------- 0 4.0 5.0 21 22
- 0.23072 2 5 cbr 1000 ------- 0 4.0 5.0 21 22
r 0.23096 4 1 cbr 1000 ------- 0 4.0 5.0 77 79
+ 0.23096 1 2 cbr 1000 ------- 0 4.0 5.0 77 79
d 0.23096 1 2 cbr 1000 ------- 0 4.0 5.0 77 79
r 0.23128 4 1 cbr 1000 ------- 0 4.0 5.0 78 80
+ 0.23128 1 2 cbr 1000 ------- 0 4.0 5.0 78 80
d 0.23128 1 2 cbr 1000 ------- 0 4.0 5.0 78 80
r 0.23144 2 5 cbr 1000 ------- 0 4.0 5.0 18 19
r 0.2316 4 1 cbr 1000 ------- 0 4.0 5.0 79 81
+ 0.2316 1 2 cbr 1000 ------- 0 4.0 5.0 79 81
d 0.2316 1 2 cbr 1000 ------- 0 4.0 5.0 79 81
- 0.23192 1 2 cbr 1000 ------- 0 4.0 5.0 38 39
r 0.23392 1 2 cbr 1000 ------- 0 4.0 5.0 22 23
+ 0.23392 2 5 cbr 1000 ------- 0 4.0 5.0 22 23
- 0.23392 2 5 cbr 1000 ------- 0 4.0 5.0 22 23
r 0.23464 2 5 cbr 1000 ------- 0 4.0 5.0 19 20
- 0.23512 1 2 cbr 1000 ------- 0 4.0 5.0 39 40
+ 0.236 4 1 cbr 1000 ------- 0 4.0 5.0 85 87
- 0.236 4 1 cbr 1000 ------- 0 4.0 5.0 85 87
+ 0.236 4 1 cbr 1000 ------- 0 4.0 5.0 86 88
+ 0.236 4 1 cbr 1000 ------- 0 4.0 5.0 87 89
+ 0.236 4 1 cbr 1000 ------- 0 4.0 5.0 88 90
+ 0.236 4 1 cbr 1000 ------- 0 4.0 5.0 89 91
- 0.23632 4 1 cbr 1000 ------- 0 4.0 5.0 86 88
- 0.23664 4 1 cbr 1000 ------- 0 4.0 5.0 87 89
- 0.23696 4 1 cbr 1000 ------- 0 4.0 5.0 88 90
r 0.23712 1 2 cbr 1000 ------- 0 4.0 5.0 23 24
+ 0.23712 2 5 cbr 1000 ------- 0 4.0 5.0 23 24
- 0.23712 2 5 cbr 1000 ------- 0 4.0 5.0 23 24
- 0.23728 4 1 cbr 1000 ------- 0 4.0 5.0 89 91
r 0.23784 2 5 cbr 1000 ------- 0 4.0 5.0 20 21
r 0.23832 4 1 cbr 1000 ------- 0 4.0 5.0 80 82
+ 0.23832 1 2 cbr 1000 ------- 0 4.0 5.0 80 82
- 0.23832 1 2 cbr 1000 ------- 0 4.0 5.0 40 41
r 0.23864 4 1 cbr 1000 ------- 0 4.0 5.0 81 83
+ 0.23864 1 2 cbr 1000 ------- 0 4.0 5.0 81 83
r 0.23896 4 1 cbr 1000 ------- 0 4.0 5.0 82 84
+ 0.23896 1 2 cbr 1000 ------- 0 4.0 5.0 82 84
r 0.23928 4 1 cbr 1000 ------- 0 4.0 5.0 83 85
+ 0.23928 1 2 cbr 1000 ------- 0 4.0 5.0 83 85
d 0.23928 1 2 cbr 1000 ------- 0 4.0 5.0 83 85
r 0.2396 4 1 cbr 1000 ------- 0 4.0 5.0 84 86
+ 0.2396 1 2 cbr 1000 ------- 0 4.0 5.0 84 86
d 0.2396 1 2 cbr 1000 ------- 0 4.0 5.0 84 86
r 0.240307 1 0 ack 40 ------- 0 3.0 0.0 0 46
+ 0.240307 0 1 tcp 1040 ------- 0 0.0 3.0 1 92
- 0.240307 0 1 tcp 1040 ------- 0 0.0 3.0 1 92
+ 0.240307 0 1 tcp 1040 ------- 0 0.0 3.0 2 93
r 0.24032 1 2 cbr 1000 ------- 0 4.0 5.0 24 25
+ 0.24032 2 5 cbr 1000 ------- 0 4.0 5.0 24 25
- 0.24032 2 5 cbr 1000 ------- 0 4.0 5.0 24 25
- 0.24064 0 1 tcp 1040 ------- 0 0.0 3.0 2 93
r 0.24104 2 5 cbr 1000 ------- 0 4.0 5.0 21 22
- 0.24152 1 2 cbr 1000 ------- 0 4.0 5.0 41 42
r 0.24352 1 2 cbr 1000 ------- 0 4.0 5.0 25 26
+ 0.24352 2 5 cbr 1000 ------- 0 4.0 5.0 25 26
- 0.24352 2 5 cbr 1000 ------- 0 4.0 5.0 25 26
+ 0.244 4 1 cbr 1000 ------- 0 4.0 5.0 90 94
- 0.244 4 1 cbr 1000 ------- 0 4.0 5.0 90 94
+ 0.244 4 1 cbr 1000 ------- 0 4.0 5.0 91 95
+ 0.244 4 1 cbr 1000 ------- 0 4.0 5.0 92 96
+ 0.244 4 1 cbr 1000 ------- 0 4.0 5.0 93 97
+ 0.244 4 1 cbr 1000 ------- 0 4.0 5.0 94 98
r 0.24424 2 5 cbr 1000 ------- 0 4.0 5.0 22 23
- 0.24432 4 1 cbr 1000 ------- 0 4.0 5.0 91 95
- 0.24464 4 1 cbr 1000 ------- 0 4.0 5.0 92 96
- 0.24472 1 2 cbr 1000 ------- 0 4.0 5.0 42 43
- 0.24496 4 1 cbr 1000 ------- 0 4.0 5.0 93 97
- 0.24528 4 1 cbr 1000 ------- 0 4.0 5.0 94 98
r 0.24632 4 1 cbr 1000 ------- 0 4.0 5.0 85 87
+ 0.24632 1 2 cbr 1000 ------- 0 4.0 5.0 85 87
r 0.24664 4 1 cbr 1000 ------- 0 4.0 5.0 86 88
+ 0.24664 1 2 cbr 1000 ------- 0 4.0 5.0 86 88
r 0.24672 1 2 cbr 1000 ------- 0 4.0 5.0 26 27
+ 0.24672 2 5 cbr 1000 ------- 0 4.0 5.0 26 27
- 0.24672 2 5 cbr 1000 ------- 0 4.0 5.0 26 27
r 0.24696 4 1 cbr 1000 ------- 0 4.0 5.0 87 89
+ 0.24696 1 2 cbr 1000 ------- 0 4.0 5.0 87 89
d 0.24696 1 2 cbr 1000 ------- 0 4.0 5.0 87 89
r 0.24728 4 1 cbr 1000 ------- 0 4.0 5.0 88 90
+ 0.24728 1 2 cbr 1000 ------- 0 4.0 5.0 88 90
d 0.24728 1 2 cbr 1000 ------- 0 4.0 5.0 88 90
r 0.24744 2 5 cbr 1000 ------- 0 4.0 5.0 23 24
r 0.2476 4 1 cbr 1000 ------- 0 4.0 5.0 89 91
+ 0.2476 1 2 cbr 1000 ------- 0 4.0 5.0 89 91
d 0.2476 1 2 cbr 1000 ------- 0 4.0 5.0 89 91
- 0.24792 1 2 cbr 1000 ------- 0 4.0 5.0 43 44
r 0.24992 1 2 cbr 1000 ------- 0 4.0 5.0 27 28
+ 0.24992 2 5 cbr 1000 ------- 0 4.0 5.0 27 28
- 0.24992 2 5 cbr 1000 ------- 0 4.0 5.0 27 28
r 0.25064 0 1 tcp 1040 ------- 0 0.0 3.0 1 92
+ 0.25064 1 2 tcp 1040 ------- 0 0.0 3.0 1 92
r 0.25064 2 5 cbr 1000 ------- 0 4.0 5.0 24 25
r 0.250973 0 1 tcp 1040 ------- 0 0.0 3.0 2 93
+ 0.250973 1 2 tcp 1040 ------- 0 0.0 3.0 2 93
d 0.250973 1 2 tcp 1040 ------- 0 0.0 3.0 2 93
- 0.25112 1 2 cbr 1000 ------- 0 4.0 5.0 44 45
+ 0.252 4 1 cbr 1000 ------- 0 4.0 5.0 95 99
- 0.252 4 1 cbr 1000 ------- 0 4.0 5.0 95 99
+ 0.252 4 1 cbr 1000 ------- 0 4.0 5.0 96 100
+ 0.252 4 1 cbr 1000 ------- 0 4.0 5.0 97 101
+ 0.252 4 1 cbr 1000 ------- 0 4.0 5.0 98 102
+ 0.252 4 1 cbr 1000 ------- 0 4.0 5.0 99 103
- 0.25232 4 1 cbr 1000 ------- 0 4.0 5.0 96 100
- 0.25264 4 1 cbr 1000 ------- 0 4.0 5.0 97 101
- 0.25296 4 1 cbr 1000 ------- 0 4.0 5.0 98 102
r 0.25312 1 2 cbr 1000 ------- 0 4.0 5.0 28 29
+ 0.25312 2 5 cbr 1000 ------- 0 4.0 5.0 28 29
- 0.25312 2 5 cbr 1000 ------- 0 4.0 5.0 28 29
- 0.25328 4 1 cbr 1000 ------- 0 4.0 5.0 99 103
r 0.25384 2 5 cbr 1000 ------- 0 4.0 5.0 25 26
r 0.25432 4 1 cbr 1000 ------- 0 4.0 5.0 90 94
+ 0.25432 1 2 cbr 1000 ------- 0 4.0 5.0 90 94
- 0.25432 1 2 cbr 1000 ------- 0 4.0 5.0 45 47
r 0.25464 4 1 cbr 1000 ------- 0 4.0 5.0 91 95
+ 0.25464 1 2 cbr 1000 ------- 0 4.0 5.0 91 95
r 0.25496 4 1 cbr 1000 ------- 0 4.0 5.0 92 96
+ 0.25496 1 2 cbr 1000 ------- 0 4.0 5.0 92 96
d 0.25496 1 2 cbr 1000 ------- 0 4.0 5.0 92 96
r 0.25528 4 1 cbr 1000 ------- 0 4.0 5.0 93 97
+ 0.25528 1 2 cbr 1000 ------- 0 4.0 5.0 93 97
d 0.25528 1 2 cbr 1000 ------- 0 4.0 5.0 93 97
r 0.2556 4 1 cbr 1000 ------- 0 4.0 5.0 94 98
+ 0.2556 1 2 cbr 1000 ------- 0 4.0 5.0 94 98
d 0.2556 1 2 cbr 1000 ------- 0 4.0 5.0 94 98
r 0.25632 1 2 cbr 1000 ------- 0 4.0 5.0 29 30
+ 0.25632 2 5 cbr 1000 ------- 0 4.0 5.0 29 30
- 0.25632 2 5 cbr 1000 ------- 0 4.0 5.0 29 30
r 0.25704 2 5 cbr 1000 ------- 0 4.0 5.0 26 27
- 0.25752 1 2 cbr 1000 ------- 0 4.0 5.0 46 48
r 0.25952 1 2 cbr 1000 ------- 0 4.0 5.0 30 31
+ 0.25952 2 5 cbr 1000 ------- 0 4.0 5.0 30 31
- 0.25952 2 5 cbr 1000 ------- 0 4.0 5.0 30 31
+ 0.26 4 1 cbr 1000 ------- 0 4.0 5.0 100 104
- 0.26 4 1 cbr 1000 ------- 0 4.0 5.0 100 104
+ 0.26 4 1 cbr 1000 ------- 0 4.0 5.0 101 105
+ 0.26 4 1 cbr 1000 ------- 0 4.0 5.0 102 106
+ 0.26 4 1 cbr 1000 ------- 0 4.0 5.0 103 107
+ 0.26 4 1 cbr 1000 ------- 0 4.0 5.0 104 108
r 0.26024 2 5 cbr 1000 ------- 0 4.0 5.0 27 28
- 0.26032 4 1 cbr 1000 ------- 0 4.0 5.0 101 105
- 0.26064 4 1 cbr 1000 ------- 0 4.0 5.0 102 106
- 0.26072 1 2 cbr 1000 ------- 0 4.0 5.0 50 52
- 0.26096 4 1 cbr 1000 ------- 0 4.0 5.0 103 107
- 0.26128 4 1 cbr 1000 ------- 0 4.0 5.0 104 108
r 0.26232 4 1 cbr 1000 ------- 0 4.0 5.0 95 99
+ 0.26232 1 2 cbr 1000 ------- 0 4.0 5.0 95 99
r 0.26264 4 1 cbr 1000 ------- 0 4.0 5.0 96 100
+ 0.26264 1 2 cbr 1000 ------- 0 4.0 5.0 96 100
r 0.26272 1 2 cbr 1000 ------- 0 4.0 5.0 31 32
+ 0.26272 2 5 cbr 1000 ------- 0 4.0 5.0 31 32
- 0.26272 2 5 cbr 1000 ------- 0 4.0 5.0 31 32
r 0.26296 4 1 cbr 1000 ------- 0 4.0 5.0 97 101
+ 0.26296 1 2 cbr 1000 ------- 0 4.0 5.0 97 101
d 0.26296 1 2 cbr 1000 ------- 0 4.0 5.0 97 101
r 0.26328 4 1 cbr 1000 ------- 0 4.0 5.0 98 102
+ 0.26328 1 2 cbr 1000 ------- 0 4.0 5.0 98 102
d 0.26328 1 2 cbr 1000 ------- 0 4.0 5.0 98 102
r 0.26344 2 5 cbr 1000 ------- 0 4.0 5.0 28 29
r 0.2636 4 1 cbr 1000 ------- 0 4.0 5.0 99 103
+ 0.2636 1 2 cbr 1000 ------- 0 4.0 5.0 99 103
d 0.2636 1 2 cbr 1000 ------- 0 4.0 5.0 99 103
- 0.26392 1 2 cbr 1000 ------- 0 4.0 5.0 51 53
r 0.26592 1 2 cbr 1000 ------- 0 4.0 5.0 32 33
+ 0.26592 2 5 cbr 1000 ------- 0 4.0 5.0 32 33
- 0.26592 2 5 cbr 1000 ------- 0 4.0 5.0 32 33
r 0.26664 2 5 cbr 1000 ------- 0 4.0 5.0 29 30
- 0.26712 1 2 cbr 1000 ------- 0 4.0 5.0 52 54
+ 0.268 4 1 cbr 1000 ------- 0 4.0 5.0 105 109
- 0.268 4 1 cbr 1000 ------- 0 4.0 5.0 105 109
+ 0.268 4 1 cbr 1000 ------- 0 4.0 5.0 106 110
+ 0.268 4 1 cbr 1000 ------- 0 4.0 5.0 107 111