V -t * -v 1.0a5 -a 0
A -t * -n 1 -p 0 -o 0x7fffffff -c 30 -a 1
A -t * -h 1 -m 1073741823 -s 0
n -t * -a 4 -s 4 -S UP -v circle -c black -i black
n -t * -a 0 -s 0 -S UP -v circle -c black -i black
n -t * -a 5 -s 5 -S UP -v circle -c black -i black
n -t * -a 1 -s 1 -S UP -v circle -c black -i black
n -t * -a 2 -s 2 -S UP -v circle -c black -i black
n -t * -a 3 -s 3 -S UP -v circle -c black -i black
l -t * -s 0 -d 1 -S UP -r 25000000 -D 0.01 -c black -o right
l -t * -s 1 -d 2 -S UP -r 2500000 -D 0.050000000000000003 -c black -o right
l -t * -s 2 -d 3 -S UP -r 25000000 -D 0.01 -c black -o right-up
l -t * -s 4 -d 1 -S UP -r 25000000 -D 0.01 -c black -o right-up
l -t * -s 2 -d 5 -S UP -r 25000000 -D 0.01 -c black -o right
q -t * -s 2 -d 1 -a 2.5
q -t * -s 1 -d 2 -a 2.5
+ -t 0.1 -s 0 -d 1 -p tcp -e 40 -c 0 -i 0 -a 0 -x {0.0 3.0 0 ------- null}
- -t 0.1 -s 0 -d 1 -p tcp -e 40 -c 0 -i 0 -a 0 -x {0.0 3.0 0 ------- null}
h -t 0.1 -s 0 -d 1 -p tcp -e 40 -c 0 -i 0 -a 0 -x {0.0 3.0 -1 ------- null}
+ -t 0.1 -s 4 -d 1 -p cbr -e 1000 -c 0 -i 1 -a 0 -x {4.0 5.0 0 ------- null}
- -t 0.1 -s 4 -d 1 -p cbr -e 1000 -c 0 -i 1 -a 0 -x {4.0 5.0 0 ------- null}
h -t 0.1 -s 4 -d 1 -p cbr -e 1000 -c 0 -i 1 -a 0 -x {4.0 5.0 -1 ------- null}
+ -t 0.1 -s 4 -d 1 -p cbr -e 1000 -c 0 -i 2 -a 0 -x {4.0 5.0 1 ------- null}
+ -t 0.1 -s 4 -d 1 -p cbr -e 1000 -c 0 -i 3 -a 0 -x {4.0 5.0 2 ------- null}
+ -t 0.1 -s 4 -d 1 -p cbr -e 1000 -c 0 -i 4 -a 0 -x {4.0 5.0 3 ------- null}
+ -t 0.1 -s 4 -d 1 -p cbr -e 1000 -c 0 -i 5 -a 0 -x {4.0 5.0 4 ------- null}
- -t 0.10032 -s 4 -d 1 -p cbr -e 1000 -c 0 -i 2 -a 0 -x {4.0 5.0 1 ------- null}
h -t 0.10032 -s 4 -d 1 -p cbr -e 1000 -c 0 -i 2 -a 0 -x {4.0 5.0 -1 ------- null}
- -t 0.10064 -s 4 -d 1 -p cbr -e 1000 -c 0 -i 3 -a 0 -x {4.0 5.0 2 ------- null}
h -t 0.10064 -s 4 -d 1 -p cbr -e 1000 -c 0 -i 3 -a 0 -x {4.0 5.0 -1 ------- null}
- -t 0.10096 -s 4 -d 1 -p cbr -e 1000 -c 0 -i 4 -a 0 -x {4.0 5.0 3 ------- null}
h -t 0.10096 -s 4 -d 1 -p cbr -e 1000 -c 0 -i 4 -a 0 -x {4.0 5.0 -1 ------- null}
- -t 0.10128 -s 4 -d 1 -p cbr -e 1000 -c 0 -i 5 -a 0 -x {4.0 5.0 4 ------- null}
h -t 0.10128 -s 4 -d 1 -p cbr -e 1000 -c 0 -i 5 -a 0 -x {4.0 5.0 -1 ------- null}
+ -t 0.108 -s 4 -d 1 -p cbr -e 1000 -c 0 -i 6 -a 0 -x {4.0 5.0 5 ------- null}
- -t 0.108 -s 4 -d 1 -p cbr -e 1000 -c 0 -i 6 -a 0 -x {4.0 5.0 5 ------- null}
h -t 0.108 -s 4 -d 1 -p cbr -e 1000 -c 0 -i 6 -a 0 -x {4.0 5.0 -1 ------- null}
+ -t 0.108 -s 4 -d 1 -p cbr -e 1000 -c 0 -i 7 -a 0 -x {4.0 5.0 6 ------- null}
+ -t 0.108 -s 4 -d 1 -p cbr -e 1000 -c 0 -i 8 -a 0 -x {4.0 5.0 7 ------- null}
+ -t 0.108 -s 4 -d 1 -p cbr -e 1000 -c 0 -i 9 -a 0 -x {4.0 5.0 8 ------- null}
+ -t 0.108 -s 4 -d 1 -p cbr -e 1000 -c 0 -i 10 -a 0 -x {4.0 5.0 9 ------- null}
- -t 0.10832 -s 4 -d 1 -p cbr -e 1000 -c 0 -i 7 -a 0 -x {4.0 5.0 6 ------- null}
h -t 0.10832 -s 4 -d 1 -p cbr -e 1000 -c 0 -i 7 -a 0 -x {4.0 5.0 -1 ------- null}
- -t 0.10864 -s 4 -d 1 -p cbr -e 1000 -c 0 -i 8 -a 0 -x {4.0 5.0 7 ------- null}
h -t 0.10864 -s 4 -d 1 -p cbr -e 1000 -c 0 -i 8 -a 0 -x {4.0 5.0 -1 ------- null}
- -t 0.10896 -s 4 -d 1 -p cbr -e 1000 -c 0 -i 9 -a 0 -x {4.0 5.0 8 ------- null}
h -t 0.10896 -s 4 -d 1 -p cbr -e 1000 -c 0 -i 9 -a 0 -x {4.0 5.0 -1 ------- null}
- -t 0.10928 -s 4 -d 1 -p cbr -e 1000 -c 0 -i 10 -a 0 -x {4.0 5.0 9 ------- null}
h -t 0.10928 -s 4 -d 1 -p cbr -e 1000 -c 0 -i 10 -a 0 -x {4.0 5.0 -1 ------- null}
r -t 0.1100128 -s 0 -d 1 -p tcp -e 40 -c 0 -i 0 -a 0 -x {0.0 3.0 0 ------- null}
+ -t 0.1100128 -s 1 -d 2 -p tcp -e 40 -c 0 -i 0 -a 0 -x {0.0 3.0 0 ------- null}
- -t 0.1100128 -s 1 -d 2 -p tcp -e 40 -c 0 -i 0 -a 0 -x {0.0 3.0 0 ------- null}
h -t 0.1100128 -s 1 -d 2 -p tcp -e 40 -c 0 -i 0 -a 0 -x {0.0 3.0 -1 ------- null}
r -t 0.11032 -s 4 -d 1 -p cbr -e 1000 -c 0 -i 1 -a 0 -x {4.0 5.0 0 ------- null}
+ -t 0.11032 -s 1 -d 2 -p cbr -e 1000 -c 0 -i 1 -a 0 -x {4.0 5.0 0 ------- null}
- -t 0.11032 -s 1 -d 2 -p cbr -e 1000 -c 0 -i 1 -a 0 -x {4.0 5.0 0 ------- null}
h -t 0.11032 -s 1 -d 2 -p cbr -e 1000 -c 0 -i 1 -a 0 -x {4.0 5.0 -1 ------- null}
r -t 0.11064 -s 4 -d 1 -p cbr -e 1000 -c 0 -i 2 -a 0 -x {4.0 5.0 1 ------- null}
+ -t 0.11064 -s 1 -d 2 -p cbr -e 1000 -c 0 -i 2 -a 0 -x {4.0 5.0 1 ------- null}
r -t 0.11096 -s 4 -d 1 -p cbr -e 1000 -c 0 -i 3 -a 0 -x {4.0 5.0 2 ------- null}
+ -t 0.11096 -s 1 -d 2 -p cbr -e 1000 -c 0 -i 3 -a 0 -x {4.0 5.0 2 ------- null}
r -t 0.11128 -s 4 -d 1 -p cbr -e 1000 -c 0 -i 4 -a 0 -x {4.0 5.0 3 ------- null}
+ -t 0.11128 -s 1 -d 2 -p cbr -e 1000 -c 0 -i 4 -a 0 -x {4.0 5.0 3 ------- null}
r -t 0.1116 -s 4 -d 1 -p cbr -e 1000 -c 0 -i 5 -a 0 -x {4.0 5.0 4 ------- null}
+ -t 0.1116 -s 1 -d 2 -p cbr -e 1000 -c 0 -i 5 -a 0 -x {4.0 5.0 4 ------- null}
- -t 0.11352 -s 1 -d 2 -p cbr -e 1000 -c 0 -i 2 -a 0 -x {4.0 5.0 1 ------- null}
h -t 0.11352 -s 1 -d 2 -p cbr -e 1000 -c 0 -i 2 -a 0 -x {4.0 5.0 -1 ------- null}
+ -t 0.116 -s 4 -d 1 -p cbr -e 1000 -c 0 -i 11 -a 0 -x {4.0 5.0 10 ------- null}
- -t 0.116 -s 4 -d 1 -p cbr -e 1000 -c 0 -i 11 -a 0 -x {4.0 5.0 10 ------- null}
h -t 0.116 -s 4 -d 1 -p cbr -e 1000 -c 0 -i 11 -a 0 -x {4.0 5.0 -1 ------- null}
+ -t 0.116 -s 4 -d 1 -p cbr -e 1000 -c 0 -i 12 -a 0 -x {4.0 5.0 11 ------- null}
+ -t 0.116 -s 4 -d 1 -p cbr -e 1000 -c 0 -i 13 -a 0 -x {4.0 5.0 12 ------- null}
+ -t 0.116 -s 4 -d 1 -p cbr -e 1000 -c 0 -i 14 -a 0 -x {4.0 5.0 13 ------- null}
+ -t 0.116 -s 4 -d 1 -p cbr -e 1000 -c 0 -i 15 -a 0 -x {4.0 5.0 14 ------- null}
- -t 0.11632 -s 4 -d 1 -p cbr -e 1000 -c 0 -i 12 -a 0 -x {4.0 5.0 11 ------- null}
h -t 0.11632 -s 4 -d 1 -p cbr -e 1000 -c 0 -i 12 -a 0 -x {4.0 5.0 -1 ------- null}
- -t 0.11664 -s 4 -d 1 -p cbr -e 1000 -c 0 -i 13 -a 0 -x {4.0 5.0 12 ------- null}
h -t 0.11664 -s 4 -d 1 -p cbr -e 1000 -c 0 -i 13 -a 0 -x {4.0 5.0 -1 ------- null}
- -t 0.11672 -s 1 -d 2 -p cbr -e 1000 -c 0 -i 3 -a 0 -x {4.0 5.0 2 ------- null}
h -t 0.11672 -s 1 -d 2 -p cbr -e 1000 -c 0 -i 3 -a 0 -x {4.0 5.0 -1 ------- null}
- -t 0.11696 -s 4 -d 1 -p cbr -e 1000 -c 0 -i 14 -a 0 -x {4.0 5.0 13 ------- null}
h -t 0.11696 -s 4 -d 1 -p cbr -e 1000 -c 0 -i 14 -a 0 -x {4.0 5.0 -1 ------- null}
- -t 0.11728 -s 4 -d 1 -p cbr -e 1000 -c 0 -i 15 -a 0 -x {4.0 5.0 14 ------- null}
h -t 0.11728 -s 4 -d 1 -p cbr -e 1000 -c 0 -i 15 -a 0 -x {4.0 5.0 -1 ------- null}
r -t 0.11832 -s 4 -d 1 -p cbr -e 1000 -c 0 -i 6 -a 0 -x {4.0 5.0 5 ------- null}
+ -t 0.11832 -s 1 -d 2 -p cbr -e 1000 -c 0 -i 6 -a 0 -x {4.0 5.0 5 ------- null}
r -t 0.11864 -s 4 -d 1 -p cbr -e 1000 -c 0 -i 7 -a 0 -x {4.0 5.0 6 ------- null}
+ -t 0.11864 -s 1 -d 2 -p cbr -e 1000 -c 0 -i 7 -a 0 -x {4.0 5.0 6 ------- null}
r -t 0.11896 -s 4 -d 1 -p cbr -e 1000 -c 0 -i 8 -a 0 -x {4.0 5.0 7 ------- null}
+ -t 0.11896 -s 1 -d 2 -p cbr -e 1000 -c 0 -i 8 -a 0 -x {4.0 5.0 7 ------- null}
r -t 0.11928 -s 4 -d 1 -p cbr -e 1000 -c 0 -i 9 -a 0 -x {4.0 5.0 8 ------- null}
+ -t 0.11928 -s 1 -d 2 -p cbr -e 1000 -c 0 -i 9 -a 0 -x {4.0 5.0 8 ------- null}
r -t 0.1196 -s 4 -d 1 -p cbr -e 1000 -c 0 -i 10 -a 0 -x {4.0 5.0 9 ------- null}
+ -t 0.1196 -s 1 -d 2 -p cbr -e 1000 -c 0 -i 10 -a 0 -x {4.0 5.0 9 ------- null}
- -t 0.11992 -s 1 -d 2 -p cbr -e 1000 -c 0 -i 4 -a 0 -x {4.0 5.0 3 ------- null}
h -t 0.11992 -s 1 -d 2 -p cbr -e 1000 -c 0 -i 4 -a 0 -x {4.0 5.0 -1 ------- null}
- -t 0.12312 -s 1 -d 2 -p cbr -e 1000 -c 0 -i 5 -a 0 -x {4.0 5.0 4 ------- null}
h -t 0.12312 -s 1 -d 2 -p cbr -e 1000 -c 0 -i 5 -a 0 -x {4.0 5.0 -1 ------- null}
+ -t 0.124 -s 4 -d 1 -p cbr -e 1000 -c 0 -i 16 -a 0 -x {4.0 5.0 15 ------- null}
- -t 0.124 -s 4 -d 1 -p cbr -e 1000 -c 0 -i 16 -a 0 -x {4.0 5.0 15 ------- null}
h -t 0.124 -s 4 -d 1 -p cbr -e 1000 -c 0 -i 16 -a 0 -x {4.0 5.0 -1 ------- null}
+ -t 0.124 -s 4 -d 1 -p cbr -e 1000 -c 0 -i 17 -a 0 -x {4.0 5.0 16 ------- null}
+ -t 0.124 -s 4 -d 1 -p cbr -e 1000 -c 0 -i 18 -a 0 -x {4.0 5.0 17 ------- null}
+ -t 0.124 -s 4 -d 1 -p cbr -e 1000 -c 0 -i 19 -a 0 -x {4.0 5.0 18 ------- null}
+ -t 0.124 -s 4 -d 1 -p cbr -e 1000 -c 0 -i 20 -a 0 -x {4.0 5.0 19 ------- null}
- -t 0.12432 -s 4 -d 1 -p cbr -e 1000 -c 0 -i 17 -a 0 -x {4.0 5.0 16 ------- null}
h -t 0.12432 -s 4 -d 1 -p cbr -e 1000 -c 0 -i 17 -a 0 -x {4.0 5.0 -1 ------- null}
- -t 0.12464 -s 4 -d 1 -p cbr -e 1000 -c 0 -i 18 -a 0 -x {4.0 5.0 17 ------- null}
h -t 0.12464 -s 4 -d 1 -p cbr -e 1000 -c 0 -i 18 -a 0 -x {4.0 5.0 -1 ------- null}
- -t 0.12496 -s 4 -d 1 -p cbr -e 1000 -c 0 -i 19 -a 0 -x {4.0 5.0 18 ------- null}
h -t 0.12496 -s 4 -d 1 -p cbr -e 1000 -c 0 -i 19 -a 0 -x {4.0 5.0 -1 ------- null}
- -t 0.12528 -s 4 -d 1 -p cbr -e 1000 -c 0 -i 20 -a 0 -x {4.0 5.0 19 ------- null}
h -t 0.12528 -s 4 -d 1 -p cbr -e 1000 -c 0 -i 20 -a 0 -x {4.0 5.0 -1 ------- null}
- -t 0.12632 -s 1 -d 2 -p cbr -e 1000 -c 0 -i 6 -a 0 -x {4.0 5.0 5 ------- null}
h -t 0.12632 -s 1 -d 2 -p cbr -e 1000 -c 0 -i 6 -a 0 -x {4.0 5.0 -1 ------- null}
r -t 0.12632 -s 4 -d 1 -p cbr -e 1000 -c 0 -i 11 -a 0 -x {4.0 5.0 10 ------- null}
+ -t 0.12632 -s 1 -d 2 -p cbr -e 1000 -c 0 -i 11 -a 0 -x {4.0 5.0 10 ------- null}
r -t 0.12664 -s 4 -d 1 -p cbr -e 1000 -c 0 -i 12 -a 0 -x {4.0 5.0 11 ------- null}
+ -t 0.12664 -s 1 -d 2 -p cbr -e 1000 -c 0 -i 12 -a 0 -x {4.0 5.0 11 ------- null}
r -t 0.12696 -s 4 -d 1 -p cbr -e 1000 -c 0 -i 13 -a 0 -x {4.0 5.0 12 ------- null}
+ -t 0.12696 -s 1 -d 2 -p cbr -e 1000 -c 0 -i 13 -a 0 -x {4.0 5.0 12 ------- null}
r -t 0.12728 -s 4 -d 1 -p cbr -e 1000 -c 0 -i 14 -a 0 -x {4.0 5.0 13 ------- null}
+ -t 0.12728 -s 1 -d 2 -p cbr -e 1000 -c 0 -i 14 -a 0 -x {4.0 5.0 13 ------- null}
r -t 0.1276 -s 4 -d 1 -p cbr -e 1000 -c 0 -i 15 -a 0 -x {4.0 5.0 14 ------- null}
+ -t 0.1276 -s 1 -d 2 -p cbr -e 1000 -c 0 -i 15 -a 0 -x {4.0 5.0 14 ------- null}
- -t 0.12952 -s 1 -d 2 -p cbr -e 1000 -c 0 -i 7 -a 0 -x {4.0 5.0 6 ------- null}
h -t 0.12952 -s 1 -d 2 -p cbr -e 1000 -c 0 -i 7 -a 0 -x {4.0 5.0 -1 ------- null}
+ -t 0.132 -s 4 -d 1 -p cbr -e 1000 -c 0 -i 21 -a 0 -x {4.0 5.0 20 ------- null}
- -t 0.132 -s 4 -d 1 -p cbr -e 1000 -c 0 -i 21 -a 0 -x {4.0 5.0 20 ------- null}
h -t 0.132 -s 4 -d 1 -p cbr -e 1000 -c 0 -i 21 -a 0 -x {4.0 5.0 -1 ------- null}
+ -t 0.132 -s 4 -d 1 -p cbr -e 1000 -c 0 -i 22 -a 0 -x {4.0 5.0 21 ------- null}
+ -t 0.132 -s 4 -d 1 -p cbr -e 1000 -c 0 -i 23 -a 0 -x {4.0 5.0 22 ------- null}
+ -t 0.132 -s 4 -d 1 -p cbr -e 1000 -c 0 -i 24 -a 0 -x {4.0 5.0 23 ------- null}
+ -t 0.132 -s 4 -d 1 -p cbr -e 1000 -c 0 -i 25 -a 0 -x {4.0 5.0 24 ------- null}
- -t 0.13232 -s 4 -d 1 -p cbr -e 1000 -c 0 -i 22 -a 0 -x {4.0 5.0 21 ------- null}
h -t 0.13232 -s 4 -d 1 -p cbr -e 1000 -c 0 -i 22 -a 0 -x {4.0 5.0 -1 ------- null}
- -t 0.13264 -s 4 -d 1 -p cbr -e 1000 -c 0 -i 23 -a 0 -x {4.0 5.0 22 ------- null}
h -t 0.13264 -s 4 -d 1 -p cbr -e 1000 -c 0 -i 23 -a 0 -x {4.0 5.0 -1 ------- null}
- -t 0.13272 -s 1 -d 2 -p cbr -e 1000 -c 0 -i 8 -a 0 -x {4.0 5.0 7 ------- null}
h -t 0.13272 -s 1 -d 2 -p cbr -e 1000 -c 0 -i 8 -a 0 -x {4.0 5.0 -1 ------- null}
- -t 0.13296 -s 4 -d 1 -p cbr -e 1000 -c 0 -i 24 -a 0 -x {4.0 5.0 23 ------- null}
h -t 0.13296 -s 4 -d 1 -p cbr -e 1000 -c 0 -i 24 -a 0 -x {4.0 5.0 -1 ------- null}
- -t 0.13328 -s 4 -d 1 -p cbr -e 1000 -c 0 -i 25 -a 0 -x {4.0 5.0 24 ------- null}
h -t 0.13328 -s 4 -d 1 -p cbr -e 1000 -c 0 -i 25 -a 0 -x {4.0 5.0 -1 ------- null}
r -t 0.13432 -s 4 -d 1 -p cbr -e 1000 -c 0 -i 16 -a 0 -x {4.0 5.0 15 ------- null}
+ -t 0.13432 -s 1 -d 2 -p cbr -e 1000 -c 0 -i 16 -a 0 -x {4.0 5.0 15 ------- null}
r -t 0.13464 -s 4 -d 1 -p cbr -e 1000 -c 0 -i 17 -a 0 -x {4.0 5.0 16 ------- null}
+ -t 0.13464 -s 1 -d 2 -p cbr -e 1000 -c 0 -i 17 -a 0 -x {4.0 5.0 16 ------- null}
r -t 0.13496 -s 4 -d 1 -p cbr -e 1000 -c 0 -i 18 -a 0 -x {4.0 5.0 17 ------- null}
+ -t 0.13496 -s 1 -d 2 -p cbr -e 1000 -c 0 -i 18 -a 0 -x {4.0 5.0 17 ------- null}
r -t 0.13528 -s 4 -d 1 -p cbr -e 1000 -c 0 -i 19 -a 0 -x {4.0 5.0 18 ------- null}
+ -t 0.13528 -s 1 -d 2 -p cbr -e 1000 -c 0 -i 19 -a 0 -x {4.0 5.0 18 ------- null}
r -t 0.1356 -s 4 -d 1 -p cbr -e 1000 -c 0 -i 20 -a 0 -x {4.0 5.0 19 ------- null}
+ -t 0.1356 -s 1 -d 2 -p cbr -e 1000 -c 0 -i 20 -a 0 -x {4.0 5.0 19 ------- null}
- -t 0.13592 -s 1 -d 2 -p cbr -e 1000 -c 0 -i 9 -a 0 -x {4.0 5.0 8 ------- null}
h -t 0.13592 -s 1 -d 2 -p cbr -e 1000 -c 0 -i 9 -a 0 -x {4.0 5.0 -1 ------- null}
- -t 0.13912 -s 1 -d 2 -p cbr -e 1000 -c 0 -i 10 -a 0 -x {4.0 5.0 9 ------- null}
h -t 0.13912 -s 1 -d 2 -p cbr -e 1000 -c 0 -i 10 -a 0 -x {4.0 5.0 -1 ------- null}
+ -t 0.14 -s 4 -d 1 -p cbr -e 1000 -c 0 -i 26 -a 0 -x {4.0 5.0 25 ------- null}
- -t 0.14 -s 4 -d 1 -p cbr -e 1000 -c 0 -i 26 -a 0 -x {4.0 5.0 25 ------- null}
h -t 0.14 -s 4 -d 1 -p cbr -e 1000 -c 0 -i 26 -a 0 -x {4.0 5.0 -1 ------- null}
+ -t 0.14 -s 4 -d 1 -p cbr -e 1000 -c 0 -i 27 -a 0 -x {4.0 5.0 26 ------- null}
+ -t 0.14 -s 4 -d 1 -p cbr -e 1000 -c 0 -i 28 -a 0 -x {4.0 5.0 27 ------- null}
+ -t 0.14 -s 4 -d 1 -p cbr -e 1000 -c 0 -i 29 -a 0 -x {4.0 5.0 28 ------- null}
+ -t 0.14 -s 4 -d 1 -p cbr -e 1000 -c 0 -i 30 -a 0 -x {4.0 5.0 29 ------- null}
- -t 0.14032 -s 4 -d 1 -p cbr -e 1000 -c 0 -i 27 -a 0 -x {4.0 5.0 26 ------- null}
h -t 0.14032 -s 4 -d 1 -p cbr -e 1000 -c 0 -i 27 -a 0 -x {4.0 5.0 -1 ------- null}
- -t 0.14064 -s 4 -d 1 -p cbr -e 1000 -c 0 -i 28 -a 0 -x {4.0 5.0 27 ------- null}
h -t 0.14064 -s 4 -d 1 -p cbr -e 1000 -c 0 -i 28 -a 0 -x {4.0 5.0 -1 ------- null}
- -t 0.14096 -s 4 -d 1 -p cbr -e 1000 -c 0 -i 29 -a 0 -x {4.0 5.0 28 ------- null}
h -t 0.14096 -s 4 -d 1 -p cbr -e 1000 -c 0 -i 29 -a 0 -x {4.0 5.0 -1 ------- null}
- -t 0.14128 -s 4 -d 1 -p cbr -e 1000 -c 0 -i 30 -a 0 -x {4.0 5.0 29 ------- null}
h -t 0.14128 -s 4 -d 1 -p cbr -e 1000 -c 0 -i 30 -a 0 -x {4.0 5.0 -1 ------- null}
r -t 0.14232 -s 4 -d 1 -p cbr -e 1000 -c 0 -i 21 -a 0 -x {4.0 5.0 20 ------- null}
+ -t 0.14232 -s 1 -d 2 -p cbr -e 1000 -c 0 -i 21 -a 0 -x {4.0 5.0 20 ------- null}
- -t 0.14232 -s 1 -d 2 -p cbr -e 1000 -c 0 -i 11 -a 0 -x {4.0 5.0 10 ------- null}
h -t 0.14232 -s 1 -d 2 -p cbr -e 1000 -c 0 -i 11 -a 0 -x {4.0 5.0 -1 ------- null}
r -t 0.14264 -s 4 -d 1 -p cbr -e 1000 -c 0 -i 22 -a 0 -x {4.0 5.0 21 ------- null}
+ -t 0.14264 -s 1 -d 2 -p cbr -e 1000 -c 0 -i 22 -a 0 -x {4.0 5.0 21 ------- null}
r -t 0.14296 -s 4 -d 1 -p cbr -e 1000 -c 0 -i 23 -a 0 -x {4.0 5.0 22 ------- null}
+ -t 0.14296 -s 1 -d 2 -p cbr -e 1000 -c 0 -i 23 -a 0 -x {4.0 5.0 22 ------- null}
r -t 0.14328 -s 4 -d 1 -p cbr -e 1000 -c 0 -i 24 -a 0 -x {4.0 5.0 23 ------- null}
+ -t 0.14328 -s 1 -d 2 -p cbr -e 1000 -c 0 -i 24 -a 0 -x {4.0 5.0 23 ------- null}
r -t 0.1436 -s 4 -d 1 -p cbr -e 1000 -c 0 -i 25 -a 0 -x {4.0 5.0 24 ------- null}
+ -t 0.1436 -s 1 -d 2 -p cbr -e 1000 -c 0 -i 25 -a 0 -x {4.0 5.0 24 ------- null}
- -t 0.14552 -s 1 -d 2 -p cbr -e 1000 -c 0 -i 12 -a 0 -x {4.0 5.0 11 ------- null}
h -t 0.14552 -s 1 -d 2 -p cbr -e 1000 -c 0 -i 12 -a 0 -x {4.0 5.0 -1 ------- null}
+ -t 0.148 -s 4 -d 1 -p cbr -e 1000 -c 0 -i 31 -a 0 -x {4.0 5.0 30 ------- null}
- -t 0.148 -s 4 -d 1 -p cbr -e 1000 -c 0 -i 31 -a 0 -x {4.0 5.0 30 ------- null}
h -t 0.148 -s 4 -d 1 -p cbr -e 1000 -c 0 -i 31 -a 0 -x {4.0 5.0 -1 ------- null}
+ -t 0.148 -s 4 -d 1 -p cbr -e 1000 -c 0 -i 32 -a 0 -x {4.0 5.0 31 ------- null}
+ -t 0.148 -s 4 -d 1 -p cbr -e 1000 -c 0 -i 33 -a 0 -x {4.0 5.0 32 ------- null}
+ -t 0.148 -s 4 -d 1 -p cbr -e 1000 -c 0 -i 34 -a 0 -x {4.0 5.0 33 ------- null}
+ -t 0.148 -s 4 -d 1 -p cbr -e 1000 -c 0 -i 35 -a 0 -x {4.0 5.0 34 ------- null}
- -t 0.14832 -s 4 -d 1 -p cbr -e 1000 -c 0 -i 32 -a 0 -x {4.0 5.0 31 ------- null}
h -t 0.14832 -s 4 -d 1 -p cbr -e 1000 -c 0 -i 32 -a 0 -x {4.0 5.0 -1 ------- null}
- -t 0.14864 -s 4 -d 1 -p cbr -e 1000 -c 0 -i 33 -a 0 -x {4.0 5.0 32 ------- null}
h -t 0.14864 -s 4 -d 1 -p cbr -e 1000 -c 0 -i 33 -a 0 -x {4.0 5.0 -1 ------- null}
- -t 0.14872 -s 1 -d 2 -p cbr -e 1000 -c 0 -i 13 -a 0 -x {4.0 5.0 12 ------- null}
h -t 0.14872 -s 1 -d 2 -p cbr -e 1000 -c 0 -i 13 -a 0 -x {4.0 5.0 -1 ------- null}
- -t 0.14896 -s 4 -d 1 -p cbr -e 1000 -c 0 -i 34 -a 0 -x {4.0 5.0 33 ------- null}
h -t 0.14896 -s 4 -d 1 -p cbr -e 1000 -c 0 -i 34 -a 0 -x {4.0 5.0 -1 ------- null}
- -t 0.14928 -s 4 -d 1 -p cbr -e 1000 -c 0 -i 35 -a 0 -x {4.0 5.0 34 ------- null}
h -t 0.14928 -s 4 -d 1 -p cbr -e 1000 -c 0 -i 35 -a 0 -x {4.0 5.0 -1 ------- null}
r -t 0.15032 -s 4 -d 1 -p cbr -e 1000 -c 0 -i 26 -a 0 -x {4.0 5.0 25 ------- null}
+ -t 0.15032 -s 1 -d 2 -p cbr -e 1000 -c 0 -i 26 -a 0 -x {4.0 5.0 25 ------- null}
r -t 0.15064 -s 4 -d 1 -p cbr -e 1000 -c 0 -i 27 -a 0 -x {4.0 5.0 26 ------- null}
+ -t 0.15064 -s 1 -d 2 -p cbr -e 1000 -c 0 -i 27 -a 0 -x {4.0 5.0 26 ------- null}
r -t 0.15096 -s 4 -d 1 -p cbr -e 1000 -c 0 -i 28 -a 0 -x {4.0 5.0 27 ------- null}
+ -t 0.15096 -s 1 -d 2 -p cbr -e 1000 -c 0 -i 28 -a 0 -x {4.0 5.0 27 ------- null}
r -t 0.15128 -s 4 -d 1 -p cbr -e 1000 -c 0 -i 29 -a 0 -x {4.0 5.0 28 ------- null}
+ -t 0.15128 -s 1 -d 2 -p cbr -e 1000 -c 0 -i 29 -a 0 -x {4.0 5.0 28 ------- null}
r -t 0.1516 -s 4 -d 1 -p cbr -e 1000 -c 0 -i 30 -a 0 -x {4.0 5.0 29 ------- null}
+ -t 0.1516 -s 1 -d 2 -p cbr -e 1000 -c 0 -i 30 -a 0 -x {4.0 5.0 29 ------- null}
- -t 0.15192 -s 1 -d 2 -p cbr -e 1000 -c 0 -i 14 -a 0 -x {4.0 5.0 13 ------- null}
h -t 0.15192 -s 1 -d 2 -p cbr -e 1000 -c 0 -i 14 -a 0 -x {4.0 5.0 -1 ------- null}
- -t 0.15512 -s 1 -d 2 -p cbr -e 1000 -c 0 -i 15 -a 0 -x {4.0 5.0 14 ------- null}
h -t 0.15512 -s 1 -d 2 -p cbr -e 1000 -c 0 -i 15 -a 0 -x {4.0 5.0 -1 ------- null}
+ -t 0.156 -s 4 -d 1 -p cbr -e 1000 -c 0 -i 36 -a 0 -x {4.0 5.0 35 ------- null}
- -t 0.156 -s 4 -d 1 -p cbr -e 1000 -c 0 -i 36 -a 0 -x {4.0 5.0 35 ------- null}
h -t 0.156 -s 4 -d 1 -p cbr -e 1000 -c 0 -i 36 -a 0 -x {4.0 5.0 -1 ------- null}
+ -t 0.156 -s 4 -d 1 -p cbr -e 1000 -c 0 -i 37 -a 0 -x {4.0 5.0 36 ------- null}
+ -t 0.156 -s 4 -d 1 -p cbr -e 1000 -c 0 -i 38 -a 0 -x {4.0 5.0 37 ------- null}
+ -t 0.156 -s 4 -d 1 -p cbr -e 1000 -c 0 -i 39 -a 0 -x {4.0 5.0 38 ------- null}
+ -t 0.156 -s 4 -d 1 -p cbr -e 1000 -c 0 -i 40 -a 0 -x {4.0 5.0 39 ------- null}
- -t 0.15632 -s 4 -d 1 -p cbr -e 1000 -c 0 -i 37 -a 0 -x {4.0 5.0 36 ------- null}
h -t 0.15632 -s 4 -d 1 -p cbr -e 1000 -c 0 -i 37 -a 0 -x {4.0 5.0 -1 ------- null}
- -t 0.15664 -s 4 -d 1 -p cbr -e 1000 -c 0 -i 38 -a 0 -x {4.0 5.0 37 ------- null}
h -t 0.15664 -s 4 -d 1 -p cbr -e 1000 -c 0 -i 38 -a 0 -x {4.0 5.0 -1 ------- null}
- -t 0.15696 -s 4 -d 1 -p cbr -e 1000 -c 0 -i 39 -a 0 -x {4.0 5.0 38 ------- null}
h -t 0.15696 -s 4 -d 1 -p cbr -e 1000 -c 0 -i 39 -a 0 -x {4.0 5.0 -1 ------- null}
- -t 0.15728 -s 4 -d 1 -p cbr -e 1000 -c 0 -i 40 -a 0 -x {4.0 5.0 39 ------- null}
h -t 0.15728 -s 4 -d 1 -p cbr -e 1000 -c 0 -i 40 -a 0 -x {4.0 5.0 -1 ------- null}
r -t 0.15832 -s 4 -d 1 -p cbr -e 1000 -c 0 -i 31 -a 0 -x {4.0 5.0 30 ------- null}
+ -t 0.15832 -s 1 -d 2 -p cbr -e 1000 -c 0 -i 31 -a 0 -x {4.0 5.0 30 ------- null}
- -t 0.15832 -s 1 -d 2 -p cbr -e 1000 -c 0 -i 16 -a 0 -x {4.0 5.0 15 ------- null}
h -t 0.15832 -s 1 -d 2 -p cbr -e 1000 -c 0 -i 16 -a 0 -x {4.0 5.0 -1 ------- null}
r -t 0.15864 -s 4 -d 1 -p cbr -e 1000 -c 0 -i 32 -a 0 -x {4.0 5.0 31 ------- null}
+ -t 0.15864 -s 1 -d 2 -p cbr -e 1000 -c 0 -i 32 -a 0 -x {4.0 5.0 31 ------- null}
r -t 0.15896 -s 4 -d 1 -p cbr -e 1000 -c 0 -i 33 -a 0 -x {4.0 5.0 32 ------- null}
+ -t 0.15896 -s 1 -d 2 -p cbr -e 1000 -c 0 -i 33 -a 0 -x {4.0 5.0 32 ------- null}
r -t 0.15928 -s 4 -d 1 -p cbr -e 1000 -c 0 -i 34 -a 0 -x {4.0 5.0 33 ------- null}
+ -t 0.15928 -s 1 -d 2 -p cbr -e 1000 -c 0 -i 34 -a 0 -x {4.0 5.0 33 ------- null}
r -t 0.1596 -s 4 -d 1 -p cbr -e 1000 -c 0 -i 35 -a 0 -x {4.0 5.0 34 ------- null}
+ -t 0.1596 -s 1 -d 2 -p cbr -e 1000 -c 0 -i 35 -a 0 -x {4.0 5.0 34 ------- null}
r -t 0.1601408 -s 1 -d 2 -p tcp -e 40 -c 0 -i 0 -a 0 -x {0.0 3.0 0 ------- null}
+ -t 0.1601408 -s 2 -d 3 -p tcp -e 40 -c 0 -i 0 -a 0 -x {0.0 3.0 0 ------- null}
- -t 0.1601408 -s 2 -d 3 -p tcp -e 40 -c 0 -i 0 -a 0 -x {0.0 3.0 0 ------- null}
h -t 0.1601408 -s 2 -d 3 -p tcp -e 40 -c 0 -i 0 -a 0 -x {0.0 3.0 -1 ------- null}
- -t 0.16152 -s 1 -d 2 -p cbr -e 1000 -c 0 -i 17 -a 0 -x {4.0 5.0 16 ------- null}
h -t 0.16152 -s 1 -d 2 -p cbr -e 1000 -c 0 -i 17 -a 0 -x {4.0 5.0 -1 ------- null}
r -t 0.16352 -s 1 -d 2 -p cbr -e 1000 -c 0 -i 1 -a 0 -x {4.0 5.0 0 ------- null}
+ -t 0.16352 -s 2 -d 5 -p cbr -e 1000 -c 0 -i 1 -a 0 -x {4.0 5.0 0 ------- null}
- -t 0.16352 -s 2 -d 5 -p cbr -e 1000 -c 0 -i 1 -a 0 -x {4.0 5.0 0 ------- null}
h -t 0.16352 -s 2 -d 5 -p cbr -e 1000 -c 0 -i 1 -a 0 -x {4.0 5.0 -1 ------- null}
+ -t 0.164 -s 4 -d 1 -p cbr -e 1000 -c 0 -i 41 -a 0 -x {4.0 5.0 40 ------- null}
- -t 0.164 -s 4 -d 1 -p cbr -e 1000 -c 0 -i 41 -a 0 -x {4.0 5.0 40 ------- null}
h -t 0.164 -s 4 -d 1 -p cbr -e 1000 -c 0 -i 41 -a 0 -x {4.0 5.0 -1 ------- null}
+ -t 0.164 -s 4 -d 1 -p cbr -e 1000 -c 0 -i 42 -a 0 -x {4.0 5.0 41 ------- null}
+ -t 0.164 -s 4 -d 1 -p cbr -e 1000 -c 0 -i 43 -a 0 -x {4.0 5.0 42 ------- null}
+ -t 0.164 -s 4 -d 1 -p cbr -e 1000 -c 0 -i 44 -a 0 -x {4.0 5.0 43 ------- null}
+ -t 0.164 -s 4 -d 1 -p cbr -e 1000 -c 0 -i 45 -a 0 -x {4.0 5.0 44 ------- null}
- -t 0.16432 -s 4 -d 1 -p cbr -e 1000 -c 0 -i 42 -a 0 -x {4.0 5.0 41 ------- null}
h -t 0.16432 -s 4 -d 1 -p cbr -e 1000 -c 0 -i 42 -a 0 -x {4.0 5.0 -1 ------- null}
- -t 0.16464 -s 4 -d 1 -p cbr -e 1000 -c 0 -i 43 -a 0 -x {4.0 5.0 42 ------- null}
h -t 0.16464 -s 4 -d 1 -p cbr -e 1000 -c 0 -i 43 -a 0 -x {4.0 5.0 -1 ------- null}
- -t 0.16472 -s 1 -d 2 -p cbr -e 1000 -c 0 -i 18 -a 0 -x {4.0 5.0 17 ------- null}
h -t 0.16472 -s 1 -d 2 -p cbr -e 1000 -c 0 -i 18 -a 0 -x {4.0 5.0 -1 ------- null}
- -t 0.16496 -s 4 -d 1 -p cbr -e 1000 -c 0 -i 44 -a 0 -x {4.0 5.0 43 ------- null}
h -t 0.16496 -s 4 -d 1 -p cbr -e 1000 -c 0 -i 44 -a 0 -x {4.0 5.0 -1 ------- null}
- -t 0.16528 -s 4 -d 1 -p cbr -e 1000 -c 0 -i 45 -a 0 -x {4.0 5.0 44 ------- null}
h -t 0.16528 -s 4 -d 1 -p cbr -e 1000 -c 0 -i 45 -a 0 -x {4.0 5.0 -1 ------- null}
r -t 0.16632 -s 4 -d 1 -p cbr -e 1000 -c 0 -i 36 -a 0 -x {4.0 5.0 35 ------- null}
+ -t 0.16632 -s 1 -d 2 -p cbr -e 1000 -c 0 -i 36 -a 0 -x {4.0 5.0 35 ------- null}
r -t 0.16664 -s 4 -d 1 -p cbr -e 1000 -c 0 -i 37 -a 0 -x {4.0 5.0 36 ------- null}
+ -t 0.16664 -s 1 -d 2 -p cbr -e 1000 -c 0 -i 37 -a 0 -x {4.0 5.0 36 ------- null}
r -t 0.16672 -s 1 -d 2 -p cbr -e 1000 -c 0 -i 2 -a 0 -x {4.0 5.0 1 ------- null}
+ -t 0.16672 -s 2 -d 5 -p cbr -e 1000 -c 0 -i 2 -a 0 -x {4.0 5.0 1 ------- null}
- -t 0.16672 -s 2 -d 5 -p cbr -e 1000 -c 0 -i 2 -a 0 -x {4.0 5.0 1 ------- null}
h -t 0.16672 -s 2 -d 5 -p cbr -e 1000 -c 0 -i 2 -a 0 -x {4.0 5.0 -1 ------- null}
r -t 0.16696 -s 4 -d 1 -p cbr -e 1000 -c 0 -i 38 -a 0 -x {4.0 5.0 37 ------- null}
+ -t 0.16696 -s 1 -d 2 -p cbr -e 1000 -c 0 -i 38 -a 0 -x {4.0 5.0 37 ------- null}
r -t 0.16728 -s 4 -d 1 -p cbr -e 1000 -c 0 -i 39 -a 0 -x {4.0 5.0 38 ------- null}
+ -t 0.16728 -s 1 -d 2 -p cbr -e 1000 -c 0 -i 39 -a 0 -x {4.0 5.0 38 ------- null}
r -t 0.1676 -s 4 -d 1 -p cbr -e 1000 -c 0 -i 40 -a 0 -x {4.0 5.0 39 ------- null}
+ -t 0.1676 -s 1 -d 2 -p cbr -e 1000 -c 0 -i 40 -a 0 -x {4.0 5.0 39 ------- null}
- -t 0.16792 -s 1 -d 2 -p cbr -e 1000 -c 0 -i 19 -a 0 -x {4.0 5.0 18 ------- null}
h -t 0.16792 -s 1 -d 2 -p cbr -e 1000 -c 0 -i 19 -a 0 -x {4.0 5.0 -1 ------- null}
r -t 0.16992 -s 1 -d 2 -p cbr -e 1000 -c 0 -i 3 -a 0 -x {4.0 5.0 2 ------- null}
+ -t 0.16992 -s 2 -d 5 -p cbr -e 1000 -c 0 -i 3 -a 0 -x {4.0 5.0 2 ------- null}
- -t 0.16992 -s 2 -d 5 -p cbr -e 1000 -c 0 -i 3 -a 0 -x {4.0 5.0 2 ------- null}
h -t 0.16992 -s 2 -d 5 -p cbr -e 1000 -c 0 -i 3 -a 0 -x {4.0 5.0 -1 ------- null}
r -t 0.1701536 -s 2 -d 3 -p tcp -e 40 -c 0 -i 0 -a 0 -x {0.0 3.0 0 ------- null}
+ -t 0.1701536 -s 3 -d 2 -p ack -e 40 -c 0 -i 46 -a 0 -x {3.0 0.0 0 ------- null}
- -t 0.1701536 -s 3 -d 2 -p ack -e 40 -c 0 -i 46 -a 0 -x {3.0 0.0 0 ------- null}
h -t 0.1701536 -s 3 -d 2 -p ack -e 40 -c 0 -i 46 -a 0 -x {3.0 0.0 -1 ------- null}
- -t 0.17112 -s 1 -d 2 -p cbr -e 1000 -c 0 -i 20 -a 0 -x {4.0 5.0 19 ------- null}
h -t 0.17112 -s 1 -d 2 -p cbr -e 1000 -c 0 -i 20 -a 0 -x {4.0 5.0 -1 ------- null}
+ -t 0.172 -s 4 -d 1 -p cbr -e 1000 -c 0 -i 47 -a 0 -x {4.0 5.0 45 ------- null}
- -t 0.172 -s 4 -d 1 -p cbr -e 1000 -c 0 -i 47 -a 0 -x {4.0 5.0 45 ------- null}
h -t 0.172 -s 4 -d 1 -p cbr -e 1000 -c 0 -i 47 -a 0 -x {4.0 5.0 -1 ------- null}
+ -t 0.172 -s 4 -d 1 -p cbr -e 1000 -c 0 -i 48 -a 0 -x {4.0 5.0 46 ------- null}
+ -t 0.172 -s 4 -d 1 -p cbr -e 1000 -c 0 -i 49 -a 0 -x {4.0 5.0 47 ------- null}
+ -t 0.172 -s 4 -d 1 -p cbr -e 1000 -c 0 -i 50 -a 0 -x {4.0 5.0 48 ------- null}
+ -t 0.172 -s 4 -d 1 -p cbr -e 1000 -c 0 -i 51 -a 0 -x {4.0 5.0 49 ------- null}
- -t 0.17232 -s 4 -d 1 -p cbr -e 1000 -c 0 -i 48 -a 0 -x {4.0 5.0 46 ------- null}
h -t 0.17232 -s 4 -d 1 -p cbr -e 1000 -c 0 -i 48 -a 0 -x {4.0 5.0 -1 ------- null}
- -t 0.17264 -s 4 -d 1 -p cbr -e 1000 -c 0 -i 49 -a 0 -x {4.0 5.0 47 ------- null}
h -t 0.17264 -s 4 -d 1 -p cbr -e 1000 -c 0 -i 49 -a 0 -x {4.0 5.0 -1 ------- null}
- -t 0.17296 -s 4 -d 1 -p cbr -e 1000 -c 0 -i 50 -a 0 -x {4.0 5.0 48 ------- null}
h -t 0.17296 -s 4 -d 1 -p cbr -e 1000 -c 0 -i 50 -a 0 -x {4.0 5.0 -1 ------- null}
r -t 0.17312 -s 1 -d 2 -p cbr -e 1000 -c 0 -i 4 -a 0 -x {4.0 5.0 3 ------- null}
+ -t 0.17312 -s 2 -d 5 -p cbr -e 1000 -c 0 -i 4 -a 0 -x {4.0 5.0 3 ------- null}
- -t 0.17312 -s 2 -d 5 -p cbr -e 1000 -c 0 -i 4 -a 0 -x {4.0 5.0 3 ------- null}
h -t 0.17312 -s 2 -d 5 -p cbr -e 1000 -c 0 -i 4 -a 0 -x {4.0 5.0 -1 ------- null}
- -t 0.17328 -s 4 -d 1 -p cbr -e 1000 -c 0 -i 51 -a 0 -x {4.0 5.0 49 ------- null}
h -t 0.17328 -s 4 -d 1 -p cbr -e 1000 -c 0 -i 51 -a 0 -x {4.0 5.0 -1 ------- null}
r -t 0.17384 -s 2 -d 5 -p cbr -e 1000 -c 0 -i 1 -a 0 -x {4.0 5.0 0 ------- null}
r -t 0.17432 -s 4 -d 1 -p cbr -e 1000 -c 0 -i 41 -a 0 -x {4.0 5.0 40 ------- null}
+ -t 0.17432 -s 1 -d 2 -p cbr -e 1000 -c 0 -i 41 -a 0 -x {4.0 5.0 40 ------- null}
- -t 0.17432 -s 1 -d 2 -p cbr -e 1000 -c 0 -i 21 -a 0 -x {4.0 5.0 20 ------- null}
h -t 0.17432 -s 1 -d 2 -p cbr -e 1000 -c 0 -i 21 -a 0 -x {4.0 5.0 -1 ------- null}
r -t 0.17464 -s 4 -d 1 -p cbr -e 1000 -c 0 -i 42 -a 0 -x {4.0 5.0 41 ------- null}
+ -t 0.17464 -s 1 -d 2 -p cbr -e 1000 -c 0 -i 42 -a 0 -x {4.0 5.0 41 ------- null}
r -t 0.17496 -s 4 -d 1 -p cbr -e 1000 -c 0 -i 43 -a 0 -x {4.0 5.0 42 ------- null}
+ -t 0.17496 -s 1 -d 2 -p cbr -e 1000 -c 0 -i 43 -a 0 -x {4.0 5.0 42 ------- null}
r -t 0.17528 -s 4 -d 1 -p cbr -e 1000 -c 0 -i 44 -a 0 -x {4.0 5.0 43 ------- null}
+ -t 0.17528 -s 1 -d 2 -p cbr -e 1000 -c 0 -i 44 -a 0 -x {4.0 5.0 43 ------- null}
r -t 0.1756 -s 4 -d 1 -p cbr -e 1000 -c 0 -i 45 -a 0 -x {4.0 5.0 44 ------- null}
+ -t 0.1756 -s 1 -d 2 -p cbr -e 1000 -c 0 -i 45 -a 0 -x {4.0 5.0 44 ------- null}
r -t 0.17632 -s 1 -d 2 -p cbr -e 1000 -c 0 -i 5 -a 0 -x {4.0 5.0 4 ------- null}
+ -t 0.17632 -s 2 -d 5 -p cbr -e 1000 -c 0 -i 5 -a 0 -x {4.0 5.0 4 ------- null}
- -t 0.17632 -s 2 -d 5 -p cbr -e 1000 -c 0 -i 5 -a 0 -x {4.0 5.0 4 ------- null}
h -t 0.17632 -s 2 -d 5 -p cbr -e 1000 -c 0 -i 5 -a 0 -x {4.0 5.0 -1 ------- null}
r -t 0.17704 -s 2 -d 5 -p cbr -e 1000 -c 0 -i 2 -a 0 -x {4.0 5.0 1 ------- null}
- -t 0.17752 -s 1 -d 2 -p cbr -e 1000 -c 0 -i 22 -a 0 -x {4.0 5.0 21 ------- null}
h -t 0.17752 -s 1 -d 2 -p cbr -e 1000 -c 0 -i 22 -a 0 -x {4.0 5.0 -1 ------- null}
r -t 0.17952 -s 1 -d 2 -p cbr -e 1000 -c 0 -i 6 -a 0 -x {4.0 5.0 5 ------- null}
+ -t 0.17952 -s 2 -d 5 -p cbr -e 1000 -c 0 -i 6 -a 0 -x {4.0 5.0 5 ------- null}
- -t 0.17952 -s 2 -d 5 -p cbr -e 1000 -c 0 -i 6 -a 0 -x {4.0 5.0 5 ------- null}
h -t 0.17952 -s 2 -d 5 -p cbr -e 1000 -c 0 -i 6 -a 0 -x {4.0 5.0 -1 ------- null}
+ -t 0.18 -s 4 -d 1 -p cbr -e 1000 -c 0 -i 52 -a 0 -x {4.0 5.0 50 ------- null}
- -t 0.18 -s 4 -d 1 -p cbr -e 1000 -c 0 -i 52 -a 0 -x {4.0 5.0 50 ------- null}
h -t 0.18 -s 4 -d 1 -p cbr -e 1000 -c 0 -i 52 -a 0 -x {4.0 5.0 -1 ------- null}
+ -t 0.18 -s 4 -d 1 -p cbr -e 1000 -c 0 -i 53 -a 0 -x {4.0 5.0 51 ------- null}
+ -t 0.18 -s 4 -d 1 -p cbr -e 1000 -c 0 -i 54 -a 0 -x {4.0 5.0 52 ------- null}
+ -t 0.18 -s 4 -d 1 -p cbr -e 1000 -c 0 -i 55 -a 0 -x {4.0 5.0 53 ------- null}
+ -t 0.18 -s 4 -d 1 -p cbr -e 1000 -c 0 -i 56 -a 0 -x {4.0 5.0 54 ------- null}
r -t 0.1801664 -s 3 -d 2 -p ack -e 40 -c 0 -i 46 -a 0 -x {3.0 0.0 0 ------- null}
+ -t 0.1801664 -s 2 -d 1 -p ack -e 40 -c 0 -i 46 -a 0 -x {3.0 0.0 0 ------- null}
- -t 0.1801664 -s 2 -d 1 -p ack -e 40 -c 0 -i 46 -a 0 -x {3.0 0.0 0 ------- null}
h -t 0.1801664 -s 2 -d 1 -p ack -e 40 -c 0 -i 46 -a 0 -x {3.0 0.0 -1 ------- null}
r -t 0.18024 -s 2 -d 5 -p cbr -e 1000 -c 0 -i 3 -a 0 -x {4.0 5.0 2 ------- null}
- -t 0.18032 -s 4 -d 1 -p cbr -e 1000 -c 0 -i 53 -a 0 -x {4.0 5.0 51 ------- null}
h -t 0.18032 -s 4 -d 1 -p cbr -e 1000 -c 0 -i 53 -a 0 -x {4.0 5.0 -1 ------- null}
- -t 0.18064 -s 4 -d 1 -p cbr -e 1000 -c 0 -i 54 -a 0 -x {4.0 5.0 52 ------- null}
h -t 0.18064 -s 4 -d 1 -p cbr -e 1000 -c 0 -i 54 -a 0 -x {4.0 5.0 -1 ------- null}
- -t 0.18072 -s 1 -d 2 -p cbr -e 1000 -c 0 -i 23 -a 0 -x {4.0 5.0 22 ------- null}
h -t 0.18072 -s 1 -d 2 -p cbr -e 1000 -c 0 -i 23 -a 0 -x {4.0 5.0 -1 ------- null}
- -t 0.18096 -s 4 -d 1 -p cbr -e 1000 -c 0 -i 55 -a 0 -x {4.0 5.0 53 ------- null}
h -t 0.18096 -s 4 -d 1 -p cbr -e 1000 -c 0 -i 55 -a 0 -x {4.0 5.0 -1 ------- null}
- -t 0.18128 -s 4 -d 1 -p cbr -e 1000 -c 0 -i 56 -a 0 -x {4.0 5.0 54 ------- null}
h -t 0.18128 -s 4 -d 1 -p cbr -e 1000 -c 0 -i 56 -a 0 -x {4.0 5.0 -1 ------- null}
r -t 0.18232 -s 4 -d 1 -p cbr -e 1000 -c 0 -i 47 -a 0 -x {4.0 5.0 45 ------- null}
+ -t 0.18232 -s 1 -d 2 -p cbr -e 1000 -c 0 -i 47 -a 0 -x {4.0 5.0 45 ------- null}
r -t 0.18264 -s 4 -d 1 -p cbr -e 1000 -c 0 -i 48 -a 0 -x {4.0 5.0 46 ------- null}
+ -t 0.18264 -s 1 -d 2 -p cbr -e 1000 -c 0 -i 48 -a 0 -x {4.0 5.0 46 ------- null}
r -t 0.18272 -s 1 -d 2 -p cbr -e 1000 -c 0 -i 7 -a 0 -x {4.0 5.0 6 ------- null}
+ -t 0.18272 -s 2 -d 5 -p cbr -e 1000 -c 0 -i 7 -a 0 -x {4.0 5.0 6 ------- null}
- -t 0.18272 -s 2 -d 5 -p cbr -e 1000 -c 0 -i 7 -a 0 -x {4.0 5.0 6 ------- null}
h -t 0.18272 -s 2 -d 5 -p cbr -e 1000 -c 0 -i 7 -a 0 -x {4.0 5.0 -1 ------- null}
r -t 0.18296 -s 4 -d 1 -p cbr -e 1000 -c 0 -i 49 -a 0 -x {4.0 5.0 47 ------- null}
+ -t 0.18296 -s 1 -d 2 -p cbr -e 1000 -c 0 -i 49 -a 0 -x {4.0 5.0 47 ------- null}